11
REF_energy=-259.5504978031947871 charge=-1 Properties=species:S:1:pos:R:3:REF_forces:R:3
Mg	-0.7709946869644001	23.1801910460457599	-13.1208939724705331	-0.0000567535336394	-0.0001105336532089	0.0002204682293574
Mg	-0.1641676737519017	20.3175279477744226	-13.8892533730064791	-0.0000238461765558	0.0000274348112465	0.0002368467478814
Mg	2.5101235326369298	20.4438019878767498	-12.1818042786251759	-0.0001084985274024	-0.0001434624332810	-0.0000347281991275
Mg	3.6780206314614179	22.6913483180859430	-13.7417171841862498	-0.0000213477892380	0.0001137427768887	-0.0000551825834420
Mg	3.0746966617439622	20.5420699684863060	-6.3639319733244140	-0.0000609455023400	0.0001265991317362	-0.0000015412900286
Mg	1.6276468618128528	24.9276171905595305	-13.7430976598001457	0.0000790588236045	-0.0000508597071406	0.0001307994152268
Mg	-0.1481520764902939	21.1637269202508023	-11.0722024155752941	-0.0000321998096016	-0.0000425716426828	-0.0003510364668649
Mg	1.9101248273513742	23.2750199867565044	-11.4213487698949478	0.0000186027362173	0.0000890580977578	-0.0001017619061201
Mg	1.0564265082870248	22.5611857324973712	-15.3277247540945094	0.0001441262298824	0.0000228661973804	-0.0000858254009126
Mg	2.6415802659965251	20.1458829606196765	-15.0268971558800946	-0.0000384631016669	0.0000294491960950	-0.0000340158411439
Mg	2.4249007610403805	21.2394973611955962	-9.3218683941904157	0.0001002666507401	-0.0000617227747913	0.0000759772951742
11
REF_energy=-259.4751233343632748 charge=-1 Properties=species:S:1:pos:R:3:REF_forces:R:3
Mg	-0.4990600886676937	21.1184755341750332	-11.7173609210535634	0.0000168218840536	-0.0000491838437437	-0.0000095524232903
Mg	1.1676984646078923	18.9098980056410646	-10.2404409627320465	-0.0000300248511632	-0.0000039493257814	-0.0000020695865931
Mg	4.1053383659460660	18.7575320489630677	-11.4448629349046289	0.0000300305318648	0.0000123671962502	0.0000074881598625
Mg	2.7523253885312333	21.4372578844934623	-10.6164974708256938	-0.0000229560472696	-0.0000191864981238	-0.0000355660244632
Mg	1.7923349161364421	19.7116452429150293	-13.1045862001629789	0.0000126214412204	0.0000935469442717	-0.0000851078117533
Mg	1.4387285346624565	22.7404260774680651	-13.1608359043885859	0.0000001111465348	0.0000110072744802	0.0000591331393772
Mg	0.4354026917763928	21.3420381054059440	-8.6925054297082163	-0.0000137742222749	-0.0000009308648729	0.0000155129297445
Mg	-1.7970183743378145	19.6383097604857859	-9.6009656215732182	-0.0000549734437571	0.0000356238025634	0.0000052940307726
Mg	-2.1042712857786281	22.7082400214140492	-9.6112724624181194	0.0000362136186619	0.0000177222548827	0.0000200695783090
Mg	0.8075075351929697	23.7035326059743632	-10.3910678688067346	0.0000193422367151	0.0000141461421829	0.0000268980590918
Mg	-0.3973458947808096	20.9516172228331108	-14.6787543247732373	0.0000065877054141	-0.0001111630821093	-0.0000021000510577
11
REF_energy=-244.0586347785251462 charge=2 Properties=species:S:1:pos:R:3:REF_forces:R:3
Mg	-1.0892456522720795	21.9502640415167782	-12.0796440873779662	-0.0000070718725614	0.0001271515605751	0.0000211855691236
Mg	-1.7503011729418538	26.2411721798871618	-9.6366915949606913	-0.0001003457353029	-0.0001045600646034	0.0000041159097948
Mg	1.0514243954195901	19.9570398876989792	-12.3982150180908537	0.0000991726994887	-0.0001415848432238	-0.0000584831424456
Mg	0.0488711944284264	24.2520144057379561	-10.7240950744098686	0.0000318569050790	-0.0000198159079586	-0.0000617069527979
Mg	1.8226676436505298	22.8139568756309856	-12.7540174135622237	0.0000867250827730	0.0000498409910940	0.0000116653412532
Mg	4.5502259907477693	24.1573179151585471	-12.4538613762206385	-0.0000076387767682	0.0000038183465957	0.0000225871348320
Mg	0.6477541860939416	23.9901186595269280	-7.8342601855286391	-0.0000617076959489	0.0000306180269454	0.0000621037119312
Mg	2.9910504532220616	24.3298182014529765	-9.8327594941974805	0.0000513249340816	0.0000251702186141	-0.0000660516598823
Mg	1.4845191919015177	17.2041249128190437	-13.4798306005027726	-0.0001261063600234	0.0000395760093890	0.0000411603135544
Mg	1.0199829933985172	21.5936457750510975	-9.8289722853278949	-0.0000249834855647	0.0000005334998126	0.0000308496672244
Mg	3.1039637639462461	22.2419192704327280	-7.7083303005810251	0.0000587743047472	-0.0000107478372403	-0.0000074258925877
11
REF_energy=-243.4925814204990786 charge=2 Properties=species:S:1:pos:R:3:REF_forces:R:3
Mg	0.0256985111189542	24.2412573219459979	-11.5643731237317375	-0.0000670424640056	0.0001224499872708	-0.0000903906612906
Mg	6.9048961447314232	24.5291186347757559	-6.9425167482695551	-0.0001206929709282	-0.0000474229817463	-0.0001159212725353
Mg	2.4094871989064566	22.6342633899473071	-10.3342938960244553	0.0000264011717732	-0.0000576528649546	0.0000136004628198
Mg	5.0475230068064842	22.7521352507902535	-8.5688019065340306	0.0001604428496064	0.0001891841797332	0.0001778135557407
Mg	-2.8420136826331452	23.0036917731048298	-11.9349905195837085	0.0000475285201552	0.0000900352966726	-0.0000145542227718
Mg	1.7914958714403801	19.6892590692862299	-11.4054652928795104	-0.0000058413977552	0.0001111985092932	0.0000913573467332
Mg	4.2157945069002905	20.1052664077076919	-9.7076382784546880	-0.0000888289591812	-0.0001505578322649	-0.0000245033240517
Mg	1.9921728166066595	16.7706428150424820	-11.8795000179609502	0.0000268892952778	0.0000026288015694	-0.0001488910088891
Mg	-1.1907170196774928	23.5614254266005432	-14.3844440651329464	-0.0000462910864293	-0.0000877463717284	0.0000711231284132
Mg	-0.2903308620467404	21.3598533831685202	-12.4340659610058104	-0.0000514602427613	-0.0000549279136187	0.0000225943779790
Mg	-2.2042155482665149	25.8084479549020891	-12.7114759426942712	0.0001188952842481	-0.0001171888102264	0.0000177716178525
11
REF_energy=-243.4825406976286217 charge=2 Properties=species:S:1:pos:R:3:REF_forces:R:3
Mg	-25.3545230326192943	39.1832087506597091	13.2403832369059256	0.0000167021567613	0.0000271076376194	-0.0000431105652512
Mg	-19.7183862170070690	43.8802985251518152	27.5989492754636423	0.0000422899562954	0.0000978051401102	0.0000424994019572
Mg	-23.1491686844792355	41.9608443072958437	17.9281215633004791	-0.0000472232126678	-0.0000141580069956	0.0000790366297544
Mg	-20.5014944580638954	41.3401108154356862	26.2396445707908406	-0.0000305389548670	0.0001006176303473	0.0000338755663458
Mg	-24.0947916908259820	39.8574984179238427	15.9236666843531882	0.0000200743995403	-0.0000830286530680	0.0000417006547976
Mg	-17.5736193210206544	43.3864856889774373	29.8234783958970731	-0.0000641057985500	-0.0001583408597330	0.0000266047986719
Mg	-21.9070571048173548	41.0275065135475714	20.5911172673459859	-0.0000303114310004	-0.0000195151710284	-0.0000344241973234
Mg	-22.8647175857792675	38.9168443747490684	18.5578779204591200	0.0000095707714848	-0.0000237925505479	-0.0000116976095415
Mg	-20.7004670208107093	41.6733952932371281	23.1685559265296561	0.0000113883505010	0.0000479176083861	-0.0000791965915189
Mg	-17.7026323163026120	41.6354183384402674	27.2346314153768958	0.0000698654559753	-0.0000448541622942	-0.0000268327596902
Mg	-18.6462691519463029	43.2252939665716269	24.8908107024086682	0.0000022883065271	0.0000702413872042	-0.0000284553282018
11
REF_energy=-244.0794943866284257 charge=2 Properties=species:S:1:pos:R:3:REF_forces:R:3
Mg	2.7109378821385963	26.0263792436548087	-12.0851246049058823	-0.0000037101050185	-0.0000441526978221	-0.0000331890662724
Mg	1.7714636996714970	24.0122771222131561	-10.1618485126404874	0.0000281075835593	0.0000258145260158	-0.0000462207709253
Mg	-0.4834634563602153	13.4831946166590999	-12.0238866740427230	0.0000182572447080	0.0000050685651985	-0.0001066005276566
Mg	-0.2412467920355575	22.1093385072302802	-11.4931456232958009	-0.0000349080334113	-0.0000204543980516	0.0000474753217169
Mg	0.6214350484994986	19.3323422288315143	-11.7842746709246580	-0.0000418008496627	-0.0000417117533779	0.0000579851110550
Mg	0.0822763122386216	16.4618993279889736	-11.8155002150933832	-0.0000163011306623	0.0000133320341763	0.0000037172827414
Mg	1.4058739421461242	21.0996286673158941	-9.1837024025203480	0.0000066921585373	0.0000214113381016	0.0000530149186489
Mg	2.6589777021827352	21.4151151946772664	-11.8512799103276194	0.0000022516436879	0.0000637487486225	0.0000210304059886
Mg	-0.3607584300668168	25.5477773542229727	-11.7098972160877448	0.0000042513753262	-0.0000242277729509	-0.0000036513447618
Mg	1.3795147638472967	23.7990792804009068	-13.4313290039739091	0.0000249226966290	-0.0000547855255029	-0.0000201021026356
Mg	2.1305388437087531	23.5530845550930650	-7.2125574735847566	0.0000122374163069	0.0000559569355906	0.0000265407721011
11
REF_energy=-243.6646201717079805 charge=2 Properties=species:S:1:pos:R:3:REF_forces:R:3
Mg	-11.3669754661083733	9.6381954488962496	21.0070098621496548	0.0000566246389269	-0.0000723173532759	-0.0000632466699406
Mg	-21.4417761678089001	10.2134009493300173	18.8854717117655433	-0.0001276436757017	0.0000144566036271	0.0000481922252195
Mg	-6.2515632612198084	9.4439450852846889	22.1048280156497619	-0.0000303075968703	0.0001038642937667	0.0002141249534205
Mg	-16.4978279685214737	10.6658540444815664	18.6198946930272626	-0.0000436065901671	0.0000775845601653	0.0000876757202906
Mg	-15.9917718946895615	7.6342000663092326	19.2178680445521586	-0.0000366974076972	0.0000350380164904	-0.0001810617479207
Mg	-17.1117778711247119	9.7078838004783368	21.2797004109039030	-0.0000940527795397	-0.0000542980212736	-0.0000683185102078
Mg	-9.0782228080063767	8.3250307711637923	22.6083097246769427	0.0000673039706618	0.0002554672079072	0.0001646550734294
Mg	-8.5334654040922437	10.7598141568434080	20.5035371545942766	-0.0000163206693836	-0.0002849590482527	-0.0002593158329037
Mg	-14.1914940530782037	9.7643816639027499	20.4021789606170358	0.0000583754684508	-0.0000830534285539	-0.0000637757296571
Mg	-18.8774122634371402	8.7739447332139129	18.9614893083023794	0.0000445984273198	0.0000198030773270	-0.0000650215081098
Mg	-19.1540738251205482	11.8894960086479404	20.0225045840671960	0.0001217262140004	-0.0000115859079276	0.0001860920263796
11
REF_energy=-243.8352055368266349 charge=2 Properties=species:S:1:pos:R:3:REF_forces:R:3
Mg	3.2010129293533280	21.6238509771814051	-10.2361043894691637	-0.0000232246303460	-0.0000249218174984	0.0000227106468954
Mg	-0.2139080536088026	20.1997341031303783	-6.2851169471743171	-0.0000248733267236	-0.0001853076605673	0.0000048275704469
Mg	0.9066157874652592	21.7898972774442754	-12.2787677497072707	0.0000488547757867	0.0000825945222286	-0.0000160040287582
Mg	1.0480006090601006	23.2883133257596810	-18.1185796392641230	0.0000026617991273	-0.0001292600099498	-0.0000275535769596
Mg	-2.2436228013042667	20.4013211809346870	-8.4053384101454949	-0.0000122626185055	0.0000669553946619	-0.0000149910780054
Mg	2.3711918553009244	20.8505063682213816	-7.4999344834621464	0.0001055515340316	-0.0000824420838026	-0.0000027476185851
Mg	0.6554026155638182	19.7221951667762561	-9.8655148103847505	-0.0000584352751960	0.0000161177804537	-0.0000335252955155
Mg	-1.8233776527115377	21.1295759911784593	-11.1936867262731621	-0.0000659420526187	0.0001120551944835	0.0000651343584237
Mg	6.1716974997399667	22.1585349240270055	-10.7942688446793085	-0.0000167614188302	0.0001307367964308	0.0000334569900649
Mg	0.2669513339469883	22.4046150899869900	-9.2156431417711335	0.0000342295504973	0.0000355068845768	0.0000049174536430
Mg	1.0896601093768943	22.5397160930140679	-15.1466499802024259	0.0000102016627771	-0.0000220350010172	-0.0000362254216500
11
REF_energy=-243.7687093241973741 charge=2 Properties=species:S:1:pos:R:3:REF_forces:R:3
Mg	-2.2726646711460239	24.4204721534939928	-5.9160246525311200	0.0000397841159331	-0.0001477165106615	-0.0000580281395009
Mg	1.1957687783819995	22.0355930708964536	-16.5579590804660128	-0.0000507955570108	0.0000107366870691	-0.0000087065149903
Mg	1.5442725408088291	21.4058737372444412	-13.6955444153980128	-0.0000863290733491	-0.0000199999424760	0.0000246115184200
Mg	0.2434570476878777	22.4115354202352961	-10.8909847594162468	0.0000506496845416	0.0001767694582567	-0.0000179899729499
Mg	0.9775381482760820	22.5508526664864917	-19.5536422688408003	0.0000886277654637	-0.0000865339454460	-0.0000819012661246
Mg	-0.4306858593692912	22.7683181508608996	-7.7002354007512688	0.0000587244589460	0.0000089053474516	0.0000472745013335
Mg	2.3399015808647325	22.1576676258485570	-8.7528088672397182	-0.0000070722797159	0.0000642782910907	0.0000807439335902
Mg	3.8463384243815888	18.6926343541547624	-9.1409507454195236	0.0000377014938761	-0.0000645178703714	-0.0000236924258422
Mg	0.3286478921662981	20.1195774590954137	-8.9498544134584375	0.0000286891854303	-0.0000256416202615	0.0000474487043041
Mg	2.4122679646945149	19.8779724048692259	-6.8128260244091718	-0.0000363406201129	-0.0000297313425386	-0.0000226080020364
Mg	2.4603410456273416	20.2563787663047137	-11.2086832300588970	-0.0001236391740021	0.0001134514478869	0.0000128476637964
11
REF_energy=-243.6358354358466727 charge=2 Properties=species:S:1:pos:R:3:REF_forces:R:3
Mg	-19.2101102567882833	41.6222971224220970	26.5011734451099343	-0.0000241890295589	0.0000724934576505	-0.0000278806178248
Mg	-23.5621993970609367	38.5185296771513919	24.4961059718396577	0.0000125720396632	-0.0001689130492507	-0.0000904957450982
Mg	-21.8170481347057361	40.7728805160656762	25.1398295430377487	0.0000411938084744	-0.0000209845037884	-0.0000582689807855
Mg	-25.3061669170285342	36.2590143880495788	23.8510577057756024	-0.0000198490229888	-0.0000078576191448	0.0000189178209419
Mg	-18.8506918156706078	44.5930282976430377	26.2283006089461246	-0.0000700327207114	0.0000156745110575	0.0000002417819500
Mg	-25.6423525143684010	33.3561414069620170	22.8656725342254106	-0.0000131343169863	-0.0000104645906078	0.0000736350571227
Mg	-21.6116424378324545	43.4628402567233607	26.5862724585240926	0.0000634516033487	0.0000059213843876	-0.0000214519924385
Mg	-20.1176972486184127	43.0432594099667725	23.9873201524859141	0.0000469448961471	0.0000530851715811	0.0000857501288266
Mg	-30.2641661330928464	29.8138361200075046	22.0473785928347610	0.0000214762233487	0.0000601645812404	-0.0001072645241433
Mg	-28.1371385575129480	35.0498318970031946	23.6703111757216220	-0.0000908035397241	-0.0000675298273417	0.0000627742953810
Mg	-28.4540427939951925	32.1694414032689764	22.6987204034679451	0.0000323700589874	0.0000684104842164	0.0000640427760680
11
REF_energy=-244.1696499152623687 charge=2 Properties=species:S:1:pos:R:3:REF_forces:R:3
Mg	-0.3010236465489675	23.8916820628682736	-10.4148393517588111	-0.0003192230355218	0.0000514579111352	0.0000840835653883
Mg	-0.6334646275218795	21.8130775860689958	-8.1726664765752748	-0.0002963493886321	-0.0001347125393960	-0.0000170444721581
Mg	2.0849450250714119	22.4497333539201662	-9.2513993936841263	-0.0000283852829912	0.0001294392999343	-0.0001126567818518
Mg	1.4295856443849888	22.3151970072351205	-15.3456687462355745	0.0000850324658442	-0.0001030837239367	0.0003301393392410
Mg	0.9447524707818677	25.1793808302364894	-14.4876657260576938	0.0002294089968855	-0.0000612712857615	-0.0002719463160750
Mg	1.8601452385584061	21.8281488963087433	-6.3514003764882672	0.0000676112217715	-0.0000630690000593	0.0000070234896993
Mg	0.1017252989364882	21.0403177414996740	-11.0366938955699059	0.0000010623645223	0.0000150290620451	0.0000438855687181
Mg	2.2333260676634277	23.2029034829989094	-12.4490977882515850	0.0001046453124148	0.0001870363159444	-0.0000275533224043
Mg	3.6729348046846786	24.2327513056237294	-15.1844890903077534	-0.0000194843316620	-0.0000448647125087	0.0000720320611235
Mg	2.6589709263684957	21.3539765632752427	-3.4816960572430804	0.0002577098823634	-0.0000726622717029	-0.0000393001334228
Mg	-0.5903290637614163	22.9371985428296732	-13.2490535595459811	-0.0000820282049946	0.0000967009443061	-0.0000686629982582
11
REF_energy=-244.3372904203392864 charge=2 Properties=species:S:1:pos:R:3:REF_forces:R:3
Mg	-21.3669457912006955	40.0957322948850177	20.1925242941729728	-0.0000895469600519	0.0000478819087276	-0.0001734890935484
Mg	-21.8973488265741629	42.7783846055007473	18.9458782994264858	-0.0000471768568396	-0.0000277878889255	0.0000027867963282
Mg	-21.4506897702871377	40.4862800737596586	23.2275344246153495	-0.0001900282599239	0.0002805331277799	0.0002215570625165
Mg	-21.1493303773644143	43.3067935607760504	22.0121934279584686	-0.0000248142361951	0.0000719845588646	0.0000100569709803
Mg	-18.6134712426334303	38.7325321911470652	19.3827256079867709	0.0000377229589620	-0.0000439130180289	0.0000130498717620
Mg	-23.6385574533310887	41.9175668692056149	21.2442461163555407	0.0000298951930882	-0.0000060688170090	-0.0000458443598179
Mg	-22.0132613750128527	42.7361215506541967	25.1680000897488263	0.0002284857391175	-0.0000627344126216	-0.0000207606313856
Mg	-19.2881849672335335	41.4153461164860275	18.1751210142474378	0.0000660185785747	-0.0000174206258113	0.0000111368803946
Mg	-18.6551574824532977	41.0162432167351199	21.3289926473776426	0.0000499650016599	0.0000527356195038	0.0000744107073707
Mg	-19.7759093660787073	38.3367736163399044	22.1019217617728643	0.0000268981051752	-0.0001776136633374	-0.0000769917417980
Mg	-23.8598695118637210	44.1449855945971237	23.3021434816853201	-0.0000874192635670	-0.0001175967891421	-0.0000159124628026
11
REF_energy=-244.0036086253305143 charge=2 Properties=species:S:1:pos:R:3:REF_forces:R:3
Mg	3.8480950133107674	22.0952906358291195	-5.4589398337535826	0.0000598116700879	-0.0000790673905782	-0.0000173251902084
Mg	0.3940263771061607	23.1437167199493992	-10.4386075836063075	0.0000263237417939	0.0000020468514683	0.0000169839348114
Mg	-1.3529334163077515	18.8731139436212310	-11.5866607036820710	-0.0000232196762638	-0.0000708098675330	0.0000499975926535
Mg	-0.6556851200821878	27.7739930255291512	-10.1721718477982570	-0.0000381751781464	0.0000308577290116	0.0000416084732049
Mg	0.2186131090271951	20.3706370275329327	-9.6081106286707207	0.0000184355451760	0.0000714934238057	0.0000607913200415
Mg	2.0385167716234718	22.6104558892677048	-7.8873049829086650	-0.0001024987694518	0.0000037528313213	-0.0000433787045090
Mg	-1.9407399412426316	25.0694839464641639	-10.4644859329085307	-0.0000068491783537	0.0000149462104174	-0.0000484409527868
Mg	0.6207019371846185	25.5190635489742697	-8.7894864844189264	-0.0000054964260303	-0.0000070980788643	-0.0000045425604773
Mg	0.6373403576739842	25.7981031895542294	-11.8829529700664978	0.0000289886453111	0.0000285844824099	-0.0000357817900251
Mg	0.2643735453423898	21.0601406211683226	-12.6368522751510195	0.0000706987042156	0.0000156369881318	-0.0000018566859370
Mg	-2.2051369989502905	21.6975471772835107	-10.9991397507202624	-0.0000280190783385	-0.0000103431795904	-0.0000180554367677
11
REF_energy=-244.4606879405344841 charge=2 Properties=species:S:1:pos:R:3:REF_forces:R:3
Mg	3.3936101657853697	23.5718733859996981	-8.2623547454279649	-0.0000167284254527	0.0001701703780318	0.0000706861177473
Mg	-0.3701029267361330	19.7568716687905308	-8.6199281973039970	0.0000346790031957	-0.0000152815963504	0.0000049502153392
Mg	-0.2696648182784707	21.8496037999399135	-10.8470115460803189	0.0000374125824343	-0.0000838901704614	0.0000961286247667
Mg	-0.6825047943232252	22.8171880525687527	-16.4662349513468023	0.0000813612045206	0.0000977848744550	0.0000360634479629
Mg	0.8515812617433958	19.2826387420954326	-11.5900794399535982	-0.0001611669567115	0.0000029261489107	-0.0000250866814930
Mg	0.3959187108847169	22.9818333590591450	-8.0696351650290463	0.0000223924229030	0.0000366660492207	-0.0000688653053488
Mg	2.4212533061002461	20.9637500538950370	-9.2592095648006989	-0.0001370408920671	-0.0000413974333745	0.0000317894274514
Mg	2.7450315724677123	21.4498237530688236	-12.4166889329680572	0.0000062414301141	-0.0000721136065278	-0.0000111578389373
Mg	2.0815762097271433	18.0283474776463244	-9.1639701075611537	0.0001473093089026	-0.0000339605667810	-0.0000046183314720
Mg	1.8595832426088803	23.8133199789440866	-10.8093734279598355	0.0000294160103009	-0.0000964433223680	-0.0001479235514958
Mg	0.2189009623944174	22.1816255374800626	-13.6750277795592066	-0.0000438756881399	0.0000355392452448	0.0000180338754794
11
REF_energy=-243.4574702677628579 charge=2 Properties=species:S:1:pos:R:3:REF_forces:R:3
Mg	-24.4625289370310952	38.6314258973361362	24.0464914446263087	0.0000460978426236	0.0001264239939230	0.0001373407586548
Mg	-21.6356777518371075	38.5865903291996517	25.0152530951500616	0.0001455487847055	-0.0001503910915923	0.0001114034809099
Mg	-31.3159877778532234	44.2083880357131349	25.3202841141640285	-0.0000172479026629	-0.0000613720110026	-0.0001408892954851
Mg	-23.2133002943625222	36.0095739325291575	25.0559985502439133	0.0001270747518595	0.0000000204972677	-0.0000758557843838
Mg	-20.3349687944064108	36.0608546449092415	24.0429657715172915	-0.0000962066467004	0.0000387035181706	-0.0000275667870223
Mg	-20.1344024516944025	36.4046277947632646	20.5289788096282031	-0.0001288926364617	0.0000268922597737	-0.0000057959428240
Mg	-28.9984062643501446	42.2570538963677720	24.9398944307133128	-0.0000689375454550	-0.0000275786521006	-0.0000651716666649
Mg	-18.0686081541681780	35.0924253574127150	22.4178000486420324	0.0000053704423446	-0.0000108895671175	-0.0001714961777833
Mg	-26.7247189400582457	40.3766296655950470	24.5403532197689707	0.0000474698535599	0.0000045752788170	0.0000865333450242
Mg	-24.1737154463428325	33.6163614296452664	26.7647423967697655	-0.0001040895573394	0.0000254635351417	0.0000345241884553
Mg	-22.4347577765074782	37.4184248359225720	22.3610926076788239	0.0000438126135263	0.0000281522387192	0.0001169738811190
11
REF_energy=-244.2189927571617716 charge=2 Properties=species:S:1:pos:R:3:REF_forces:R:3
Mg	1.9853267057838331	21.2966103536953462	-11.2286544117899822	-0.0001029157645419	0.0001230065484767	-0.0000271970767131
Mg	-0.4814929433372101	22.2191938845425376	-9.7252410368722035	0.0001406895949494	-0.0000308976850396	0.0000045057625483
Mg	4.0400610263720376	23.5479539337416597	-11.5296522305965503	-0.0000895507877464	0.0000715547484157	0.0000096011891469
Mg	-0.5817303924655783	20.4092209468670021	-7.1815813259112993	0.0001525968285917	-0.0000433951074607	-0.0000123238005767
Mg	3.2998774548259480	25.5381339334898847	-13.5417906136099333	0.0000858877834125	-0.0001224655944007	0.0001428289089297
Mg	-1.9237495350607701	24.3437669573316811	-11.5633813569891473	-0.0000418291610823	0.0000906930423982	0.0000481859349891
Mg	2.5355789533135069	19.2824351997311147	-13.3796601813672993	-0.0000001661551041	-0.0001240663539885	-0.0000700249794171
Mg	2.1315433702229587	21.1742850488353440	-8.2735066841297726	-0.0000439372568497	0.0000718073174797	0.0000502815438255
Mg	1.9205236975817521	23.9106224316852654	-9.3738113912248071	-0.0001473377474374	-0.0000279771082455	-0.0000348320364268
Mg	2.9196851255371872	22.3997610683352519	-14.0402388336393180	-0.0000252859961422	0.0000259834209574	0.0000769502374392
Mg	1.0135739578678777	24.0585956562975092	-12.2642689485897165	0.0000718486619505	-0.0000342432285927	-0.0001879756837449
11
REF_energy=-243.8333786214681993 charge=2 Properties=species:S:1:pos:R:3:REF_forces:R:3
Mg	0.3181295416934253	21.5286499124493851	-10.0639990840727567	-0.0000477571930172	-0.0000290699808969	0.0000980973696958
Mg	2.2711277137153161	23.8575659479216569	-9.6233307817970992	0.0000452414156042	0.0000222575474075	0.0000472402494910
Mg	1.9274552503900924	22.3362328321237840	-12.2686148579013743	-0.0000356669055381	0.0000522162766104	0.0000382613838803
Mg	0.8199376088097907	26.6086802718112594	-9.6709598027487917	0.0000020231841904	-0.0000265937394969	-0.0000224697252377
Mg	-5.0666267915078649	25.2021372807698505	-14.4469487848934772	0.0001690503316537	0.0000213641663106	-0.0001675652833571
Mg	-0.2656875811041615	24.3149655347357161	-11.3063994364986247	-0.0000166633058017	-0.0000008653205161	0.0000450786812994
Mg	3.2165082790918680	20.8300719322853354	-10.0425603370503058	-0.0001185067751929	0.0000638705015963	0.0000276411972329
Mg	7.8842223604855191	17.9429265016102875	-7.6627952527343766	0.0000404196700130	0.0000044438654837	-0.0001873144790536
Mg	-0.9834077723942563	21.6127538086417026	-12.8209472405142026	-0.0000226479083285	-0.0000267230550111	0.0001271323326111
Mg	5.5244874491890137	19.4682486461785693	-8.8449018112611046	0.0000208101939722	-0.0000036331357044	0.0000168428045232
Mg	-2.6092853900844926	24.1196175130838242	-13.0763253084749813	-0.0000363027075551	-0.0000772671257829	-0.0000229445310853
11
REF_energy=-259.5924650765153388 charge=-1 Properties=species:S:1:pos:R:3:REF_forces:R:3
Mg	4.7017748494819331	22.7165653247975818	-14.4275800632248998	0.0000923689988820	-0.0000476158085607	-0.0000271804678176
Mg	0.7059712362909009	24.4435410867405167	-11.6881573865603077	0.0000571042164051	-0.0000183723735406	-0.0000095393550318
Mg	0.0051575118795032	21.7544022987452053	-12.9907931340257683	-0.0001515513189138	0.0000105842716880	0.0000841433601699
Mg	3.0538826670700554	22.6711424871969811	-11.7776046759971305	-0.0001085013785100	0.0001155325745827	0.0001728261296860
Mg	-1.0817179709844056	20.0270203618523652	-10.7343325398566432	0.0000023919218153	0.0000782164630370	0.0000306299310839
Mg	2.4127493244729212	20.6799113426329946	-14.3327528993493729	0.0000970526364794	-0.0000738099804680	-0.0000358208848460
Mg	4.7929386736534285	20.3046605018948831	-12.5728787296809283	-0.0000376280773309	-0.0000046119975014	-0.0000060116149343
Mg	1.7709547312049971	23.6488796848924565	-14.3887437541165895	-0.0000299075780012	0.0000897449816926	-0.0000550233065512
Mg	0.9163135923581160	22.0494173040401975	-9.8290173394716884	0.0000860259960841	0.0000177721488157	-0.0000923367830175
Mg	1.9163013036705903	19.7842559786258860	-11.5166345625311610	-0.0000308440125711	-0.0000446551627217	-0.0000498872631688
Mg	-1.8433938227577265	22.9731340447317507	-10.7933565980065538	0.0000234885956610	-0.0001227851170235	-0.0000117997455727
11
REF_energy=-243.4121073891159028 charge=2 Properties=species:S:1:pos:R:3:REF_forces:R:3
Mg	4.5059211562982302	10.7686067616627064	-8.8113006795132733	0.0000063572589216	0.0000456743786275	0.0000576691282865
Mg	4.7782101848501766	13.5894462421896485	-10.3085835993615866	-0.0000450853128832	0.0000392539085096	0.0001360741431829
Mg	1.6885453526715402	6.6556794373401074	-10.4365895097994503	-0.0000634657172830	0.0000854566348981	-0.0000536825408212
Mg	4.7291854419415671	7.7642481287151437	-10.1559759132760217	0.0000605151281261	0.0000401885664965	0.0000539625679681
Mg	-0.5752464252164498	9.9280113273674733	-10.6837493090315334	0.0000743693230256	-0.0000152865029278	-0.0001489060638174
Mg	9.9477602939376659	9.3591723817433987	-9.6895041193301488	-0.0001282751644398	0.0000097380626517	-0.0000034240082913
Mg	2.3292885582023475	9.5941294801682702	-10.4231511217820962	-0.0002024673024299	-0.0001474428086380	0.0000700803893255
Mg	12.9686810493283478	9.0977627056413901	-9.3781696987862926	-0.0000243558243827	-0.0000839023707115	-0.0001144289897182
Mg	3.9987811188408466	4.7124329367102922	-10.2018598114416932	0.0001118234656555	-0.0000464353614408	0.0001231690031950
Mg	7.0503345013898437	9.7066385828040644	-9.9829956500631418	0.0000570794966998	0.0000155409036265	0.0000085469469545
Mg	4.7737903878081198	10.6897331320264026	-11.6668728770657424	0.0001535046489900	0.0000572145889084	-0.0001290605762645
11
REF_energy=-243.7727377764807670 charge=2 Properties=species:S:1:pos:R:3:REF_forces:R:3
Mg	-0.1792520910992587	16.8872606895645170	-12.2865934065783549	0.0000510787021516	-0.0000500898361058	-0.0000339951837268
Mg	2.1081191581922933	26.3259845629405831	-10.8324188704628686	-0.0000110259906621	-0.0000842332733672	0.0000140086329733
Mg	2.7588808623855718	29.2822916461171694	-10.6409551733040644	0.0000765795099239	0.0000129057088593	-0.0000203595863490
Mg	1.3478684355354031	20.8951414674064857	-8.7120214519506529	-0.0000180652614354	-0.0001118865901379	0.0000512879393407
Mg	0.5556950200328910	21.7578097193129985	-13.9872165545972429	-0.0000135919513581	-0.0000159047703201	0.0000174866220140
Mg	1.8902216943614960	23.8416439987329802	-9.1857300368526733	-0.0000129832130544	0.0001189530035221	-0.0000051636638179
Mg	1.3118603076926512	24.4314452221784713	-12.9908836446615794	-0.0000270421083438	0.0000454051392082	0.0000238464649773
Mg	-0.1963753471587698	22.5287007154494887	-10.9752164846004909	-0.0000615068688305	-0.0000233156023803	-0.0000156021348255
Mg	0.5605790651813239	19.7238931766692467	-11.6091433681208098	0.0000047727367318	0.0000573190789397	0.0000007934449235
Mg	2.5339479893862960	21.9434822388764204	-11.4809889891212773	0.0000038022721261	0.0000124127411990	-0.0000124646662334
Mg	1.4850006595176728	19.2687381310728156	-6.1055485440539030	0.0000079821727507	0.0000384344005829	-0.0000198378692762
11
REF_energy=-244.4853485166997871 charge=2 Properties=species:S:1:pos:R:3:REF_forces:R:3
Mg	6.2181140496456671	-6.0687727463166636	1.3029584293481784	-0.0000767881395603	0.0000743267159579	0.0000507020868759
Mg	12.2679533200099566	-4.9503006804758636	2.5963721395679191	-0.0000601614241015	0.0000735454644266	0.0000156710182830
Mg	8.6260371426499614	-7.9111500767270293	0.4875584619786719	0.0000575824880629	-0.0001119863736327	-0.0000112177189661
Mg	5.7196148133729103	-3.0374012539929631	0.3688120487866598	0.0001060666465398	-0.0000463663277192	0.0000615391055745
Mg	7.3267637007016404	-3.5211502582663954	2.7654892062208680	0.0000404295452830	-0.0000399437642458	-0.0000196923416987
Mg	10.2687702777575378	-2.9863942580346139	1.2364149409820246	-0.0000985345866136	-0.0000648776288296	-0.0000247132447689
Mg	9.3182806823250637	-5.7328864234640102	2.4241833352937605	0.0000442317081459	0.0000207832716601	0.0000173877706125
Mg	8.1913830667510652	-4.6107560440482027	-0.3788141185316962	0.0000409442465552	0.0001134893330308	-0.0000477031958359
Mg	6.8959925929043724	-7.0073591461463565	-1.6919038521665986	-0.0000828586895847	-0.0000831807036779	-0.0000695036722939
Mg	4.6063027231116509	-5.1804881287607500	-1.3279587856579402	-0.0000295131426366	0.0000526682214302	-0.0000154645167159
Mg	11.0743218014878995	-5.7116388996048650	-0.1784466177160207	0.0000586013479098	0.0000115417915995	0.0000429947089336
11