11
REF_energy=-253.1075796548969947 charge=1 Properties=species:S:1:pos:R:3:REF_forces:R:3
Mg	4.0288288055442978	24.2117055970250448	-10.3844532369125897	-0.0000204338128597	-0.0000492000215775	0.0000129953029919
Mg	-1.6121345470813913	23.5996766684549506	-12.2105444741556823	0.0000106369986928	-0.0000522177231715	0.0000774020922860
Mg	1.2063971514574590	19.8429200949147706	-10.0459982121038465	-0.0000504212408983	-0.0000422434839811	0.0000244264267895
Mg	2.9191909296505103	21.6670921589580807	-11.6436111498053059	0.0000664479814889	0.0000648970338081	0.0000212939670026
Mg	-1.5348880658253476	19.7212187141232960	-9.0047800332842272	0.0000382062472206	-0.0000185017060124	0.0000480237771174
Mg	1.0844289289468960	24.0878909458678230	-11.1635360841769007	0.0000083863630364	0.0000072840193069	-0.0000107681904624
Mg	2.0442856971541077	22.4038121644233890	-8.8529219781329775	0.0000059256488094	0.0000134050986542	-0.0000068848086138
Mg	-0.8248053509447272	22.5228820071838953	-9.5145379846716125	-0.0000264028306279	0.0000384627530134	-0.0000865361532841
Mg	-1.0375578054041021	20.6642146968445282	-11.8594800561465270	0.0000076271441765	0.0000481327431106	-0.0000510913727860
Mg	0.6923747964516755	22.3259439623784068	-13.6268847833518230	-0.0000307254186147	0.0000141028270558	-0.0000298013227558
Mg	1.4888592820902999	19.5083242184640007	-13.0219329993852124	-0.0000092470804240	-0.0000241215402065	0.0000009402817148
11
REF_energy=-243.5524197203804420 charge=2 Properties=species:S:1:pos:R:3:REF_forces:R:3
Mg	-1.1981386209590277	23.9980075754842055	-8.6673980351570368	-0.0001141975567642	-0.0000989223028970	0.0000597783258378
Mg	-1.1553739301563468	23.8187884123556444	-11.7035302702503632	-0.0000020889269573	0.0000029688498438	0.0000282801608685
Mg	-1.3058635346698932	21.3564979584723673	-10.0297236620867309	0.0000552101573454	0.0002482687892521	0.0000454041269761
Mg	4.3474351532954127	22.3908703323345755	-10.7043821427266259	-0.0001205859115963	0.0000044647809457	-0.0000644195729468
Mg	0.5124095877698437	25.7759779182903976	-10.2996233414009293	0.0001608392046512	0.0004335255142019	0.0001416385193466
Mg	1.3194733467878574	22.9119637788430452	-10.2457424071968060	0.0001294780663489	-0.0001844506160469	0.0001024698785465
Mg	1.7499411965129146	28.2387970336510321	-11.2746804036413621	-0.0001235604660942	-0.0000910492693759	0.0000905957956881
Mg	4.4711677583426201	27.9828233044261516	-12.5154799922634634	-0.0000193744910115	-0.0000662999834717	-0.0001735944004216
Mg	-2.9484101869527186	24.4559472977380246	-6.2024031813454927	-0.0001527244851533	0.0000183462669633	-0.0000581851153008
Mg	3.3648661606934200	25.3116645115910508	-11.2180221510853180	0.0000801025077468	-0.0001469136642435	-0.0000592041811572
Mg	-2.0937981733880684	18.4621781178652320	-10.2657050043431450	0.0001069019014847	-0.0001199383651717	-0.0001127635374373
11
REF_energy=-244.2752821749234897 charge=2 Properties=species:S:1:pos:R:3:REF_forces:R:3
Mg	1.3120177223586880	22.0008600117657984	-9.0650063811800159	0.0000597993088158	-0.0000717463615433	0.0000231864177126
Mg	1.6209753689427862	27.2820824038594019	-12.6052381408387113	-0.0000318641501156	-0.0000425627997814	0.0000667597962469
Mg	2.6796815617040077	26.1480114757369293	-10.0941312083741259	0.0000082711221329	0.0000541763119706	-0.0000303550783106
Mg	0.5540871343429429	24.9005410681491277	-8.4769615781493570	-0.0000146076474869	0.0000113124684957	-0.0000551905209658
Mg	-1.4564259195212657	22.7646099975302931	-9.3299314063974226	-0.0000639841817646	0.0000457943329284	-0.0000322236606028
Mg	-0.1887957635905866	22.9186903411111516	-6.4379396579906176	-0.0000115796181964	-0.0000213245026519	0.0000186349459623
Mg	0.6704588385641042	24.2761557445981495	-11.4698535248809321	-0.0000129602927035	-0.0000144927712080	-0.0000493210415827
Mg	-0.2976986434956156	26.9810792638627248	-10.3833384471709103	0.0000331990464131	-0.0000230576245226	0.0000406932084058
Mg	-1.6242702503708715	17.4673796228058507	-7.1266140906682915	0.0000119605293302	0.0000676648698113	0.0000103948885268
Mg	-0.7959952980880701	20.3024416582292275	-7.6425856569465536	-0.0000137084085668	-0.0000472437407666	0.0000501965330045
Mg	-0.0914280572703945	21.3701525580133342	-11.9207065259733849	0.0000354742921418	0.0000414798172678	-0.0000427754883971
11
REF_energy=-243.5035088184619951 charge=2 Properties=species:S:1:pos:R:3:REF_forces:R:3
Mg	-25.2029638669207898	40.7663460939442217	23.4789827118767924	-0.0001680174634967	0.0000888687648481	0.0001067050982747
Mg	-30.2625853948382897	35.1388283235870844	26.6630279937854020	-0.0004098422541245	0.0001931985696947	-0.0001850475887844
Mg	-26.2012025457839250	38.0914695399407748	24.3552573689433416	-0.0001600503395578	-0.0001275140443161	-0.0000430253175608
Mg	-29.7440598526888245	34.0897322878271396	22.8804723541887789	0.0001107371479360	-0.0004245417866867	0.0001330277142954
Mg	-28.3648933911599990	36.1848894216661066	24.5595422028250567	0.0001534590159182	-0.0000381611017090	0.0000767985220124
Mg	-24.1094974029464915	39.4222846250165304	26.0502473267173791	0.0000175504512956	0.0000903030394953	0.0000779860563705
Mg	-26.5970780909311166	43.0592641544300747	22.0889629151362499	0.0001196660642483	0.0000184721433428	0.0002314088578386
Mg	-23.3519712811734479	38.2787691837977491	23.4267647267331611	-0.0000202837005396	0.0000963723893916	-0.0002201877285907
Mg	-23.5031463859972192	43.4016985776667852	22.8325221643702356	-0.0000233981333319	0.0002200977779346	-0.0000197842433433
Mg	-20.2953508571827754	42.9926659816130936	23.9298707260264791	0.0001329982851056	0.0001903009355136	-0.0000947495175840
Mg	-22.2794132336778539	40.8928892926041172	24.2675641359804679	0.0002471809265469	-0.0003073966875088	-0.0000631318529285
11
REF_energy=-259.1832780727162913 charge=-1 Properties=species:S:1:pos:R:3:REF_forces:R:3
Mg	-12.4796744006948739	9.0490331520934664	20.5097877482182405	-0.0000603234010779	-0.0000374236694637	-0.0001336523515630
Mg	-15.4836422080752047	7.7160254751045896	21.2173609608240490	0.0001753715429647	-0.0000773559914165	0.0000435885519557
Mg	-14.1900045173530920	7.8669715216089955	18.2782154368623679	0.0000431912902666	0.0000880985083503	0.0001512271936274
Mg	-17.1102701947549036	8.4555338510252138	18.7963004795212818	-0.0000215844748282	0.0000254463917251	-0.0001749216657324
Mg	-15.8495673088653390	10.1627093326206523	16.6860560958364097	-0.0000081998322969	-0.0000758435803410	0.0000604180542608
Mg	-15.1160475481316112	10.5235731712108098	19.7400334777303677	0.0001021911294127	-0.0000074546153338	-0.0001245959440187
Mg	-13.2362669250755012	7.4387929857983410	23.1512754176974411	-0.0000704142015243	-0.0000425930997063	0.0000319917206584
Mg	-16.3287061918852388	7.2791094408223751	16.0898691906209343	-0.0000609264946894	0.0000208555114793	0.0000946071942929
Mg	-12.7776362072616134	11.9039416576588035	20.9508686547152649	-0.0000006830764447	0.0000331186562541	0.0000006565942490
Mg	-13.0171024270554643	6.1817098817407166	20.4604643069260455	-0.0000457942780730	0.0000839126907016	-0.0000468164929842
Mg	-14.4786305241078672	10.2323441106841813	22.6984786351138972	-0.0000528282037096	-0.0000107608022490	0.0000974971452540
11
REF_energy=-244.0210037643148269 charge=2 Properties=species:S:1:pos:R:3:REF_forces:R:3
Mg	6.1603959755351241	21.7165612541551667	-7.1470871526350255	0.0000235379865678	0.0000300443871099	-0.0001066785940098
Mg	9.1471015458043183	21.1141757310176423	-7.0167792206574635	-0.0000197578837302	0.0000120331283568	0.0001606471906300
Mg	0.3984077802807833	22.8776408112574074	-7.4179422941080446	-0.0000093047038306	0.0000014602347041	-0.0000201750397407
Mg	-2.1625962727294010	23.4562584822153752	-8.9637619765751868	-0.0000027611733304	0.0000005767290029	0.0000133554859926
Mg	-1.8537947528805183	20.6311365604782893	-7.6208312455429610	-0.0000434601276983	0.0000188357974928	0.0000065521662387
Mg	-3.8134094494983932	25.6893146180527410	-7.5623291942623014	-0.0000212109851384	0.0000330345061824	0.0000518726753087
Mg	3.2462175088251697	22.3041822597333699	-7.2808619309815494	0.0000115132944971	-0.0000353790065652	-0.0001279152099283
Mg	-6.4422230167599484	24.2533324816272895	-7.7610605604184633	0.0000064415738186	0.0000286910206510	0.0000057179651153
Mg	-0.8215116984189075	25.8223739774243981	-7.3880182458549486	0.0000272786680151	-0.0000318558769358	-0.0000231665573938
Mg	-4.5647758980315798	21.9109516457565263	-7.7317182980942185	0.0000385058690158	-0.0000403890062292	0.0000227703826391
Mg	-2.3228441311568875	23.3612502707566350	-6.1357400598975618	-0.0000107825181865	-0.0000170519137697	0.0000170195351481
11
REF_energy=-243.6124946444378168 charge=2 Properties=species:S:1:pos:R:3:REF_forces:R:3
Mg	-18.5508229946163610	12.5087978713687100	21.0770639575652829	0.0000226281572100	0.0000839379617256	0.0000602947117044
Mg	-19.0081841368581763	12.8764465260944885	18.0465300262193722	0.0000986809202849	-0.0000068122195042	-0.0001708876143648
Mg	-17.1555034522834866	10.6958065359093393	19.0412119978086949	0.0000591851105185	-0.0000128296776827	0.0000064178030601
Mg	-12.4890893156586138	8.3542098049473665	17.2370903723435980	-0.0000779246068740	0.0000274655524043	-0.0000388743096571
Mg	-14.8885526897448255	10.0759527348664140	17.4088285501382209	0.0000417860733349	-0.0000644350664293	-0.0000342545698466
Mg	-13.8857052084847901	11.1474536058426725	14.7318469030467192	0.0000242751078374	-0.0000153611650486	0.0000322053736716
Mg	-21.2136386238031314	13.2536518609175769	19.9536593281884578	-0.0001536537725686	0.0000394747709747	0.0000572148946219
Mg	-16.6380120512609295	12.3932163051345228	16.0806162734382632	-0.0001033072607027	-0.0000296539435843	-0.0000011305526752
Mg	-20.1550759578675667	10.4828567269975181	19.6220803569432434	-0.0000082721371418	-0.0000665105711427	0.0001004900317708
Mg	-23.7211877908459705	14.5578199566091850	20.9101641654393049	0.0000683106535708	-0.0000326602322917	-0.0000626651590998
Mg	-15.4673870455105202	13.3629517043230699	13.3216323823690672	0.0000282917545304	0.0000773845905789	0.0000511893908147
11
REF_energy=-243.5127167651527884 charge=2 Properties=species:S:1:pos:R:3:REF_forces:R:3
Mg	0.8288057702325072	20.4680309771092688	-9.3897200983996232	0.0000274761428938	-0.0001788755003013	0.0000610013186188
Mg	-6.6797245830240630	23.9975620645722003	-9.2336122982895059	0.0000978922782452	-0.0001497431869151	-0.0003641489649753
Mg	-0.8277037338391228	19.9354365395256004	-6.8267190422481656	-0.0000138284382761	-0.0000652961112861	0.0000054235038393
Mg	-1.3953573864934872	22.2185281576758804	-9.0892386271026613	0.0001444789824982	-0.0000727291616170	0.0000479109668157
Mg	-4.1496143595428192	26.8444729310667505	-10.2329669694374967	0.0000056815225125	0.0000517858011016	0.0004441982484923
Mg	2.1347746919337496	19.4445791462176807	-6.7899827436597420	-0.0001570275699092	0.0001737234503459	0.0001793095496643
Mg	4.4008670102181426	17.6606133027271355	-7.3996783521261555	0.0001309029625386	-0.0001359650644210	0.0001859222806793
Mg	0.9562884246163268	22.2060460298452540	-6.8280280312983255	0.0001430287650791	0.0001029267912548	-0.0001268113834392
Mg	3.1072052212391776	18.6748373169103239	-10.0177451426934052	-0.0002507587895448	-0.0000096024375366	-0.0001566534772664
Mg	-3.6653470863593776	24.0096910227053897	-9.3064241492059185	-0.0002759542513796	0.0001688054592021	-0.0000578645813976
Mg	1.0307233979574810	20.3151042916796634	-4.1446758116655440	0.0001481083953422	0.0001149699601726	-0.0002182874610312
11
REF_energy=-243.7342599667577190 charge=2 Properties=species:S:1:pos:R:3:REF_forces:R:3
Mg	-0.6768321940446127	21.2690456473770553	-8.0856577034345776	-0.0000648055175910	-0.0000216453308212	0.0000627261274449
Mg	4.0114375387749055	25.1662300025780681	-9.9483370383153442	-0.0003144910940015	-0.0002778072848620	-0.0001617735416763
Mg	1.2338051748162961	20.8972334127567017	-10.3103163886949254	-0.0001849396719003	-0.0002083165483978	-0.0000284372434812
Mg	2.4129688629347399	23.4134194971469540	-17.4783595518071593	0.0000026709448411	0.0001459856649336	0.0001139424215288
Mg	2.1897560589011991	23.5302911031089970	-11.6788804127674464	0.0002350815485923	0.0001713397323781	-0.0002258347898652
Mg	6.2443577267017609	27.1051913369342508	-9.1966528709454742	0.0001690096373617	0.0001504850260385	0.0000109024760518
Mg	-0.6267874937360818	23.0838876492969121	-10.4181095688216079	-0.0001512472798142	-0.0001424494435774	0.0000179840242515
Mg	1.8342883100890155	23.3777229066429513	-8.6556425731440196	-0.0000458109271740	-0.0000165304025279	0.0002430675183723
Mg	-0.1875027435503086	21.4473893932868478	-12.9082755481914795	-0.0000294920353027	-0.0001606286949995	0.0001193561083316
Mg	-1.9007487276193851	20.3513919072353104	-5.4916231832715505	0.0001110566778416	0.0001826603785979	0.0000804201661541
Mg	1.7265825627657847	22.9877450113485757	-14.5651452357173898	0.0002729677171469	0.0001769069032377	-0.0002323532671122
11
REF_energy=-251.8138140985272742 charge=1 Properties=species:S:1:pos:R:3:REF_forces:R:3
Mg	0.6297985355233808	23.4442472020661796	-9.8899225787967033	0.0000276868319177	-0.0000044896917366	-0.0000087552620021
Mg	-0.9486249568326681	20.7842841358240698	-9.7965731587338851	-0.0000175451010213	-0.0000294524022482	0.0000214163265464
Mg	1.3484742119535833	15.6409276656384915	-10.2903491473649478	-0.0000583704064553	0.0000040129656067	0.0000635785200015
Mg	0.5527728957226852	22.1108650848616435	-14.5996807422501895	-0.0000093908978358	-0.0000071578729460	0.0000000718037438
Mg	-0.6384996383453437	24.8986999649819367	-14.5108821132814327	-0.0000305572713561	0.0000459933038424	-0.0000334071824481
Mg	3.5684320234966185	23.1652752722390218	-10.4879043979606994	-0.0000532941210821	0.0000248796350563	-0.0000140522906417
Mg	1.5950497946794171	24.0982931854625093	-12.6179423950111520	-0.0000034478618838	-0.0000278822534015	0.0000926889448611
Mg	1.0473567410126363	18.5865445306438204	-9.7490897626158404	0.0000398088292209	-0.0000884061148554	-0.0000321162038944
Mg	1.9583860916227089	21.0914205849691001	-8.7297814385864356	0.0000267839416763	0.0000149599265275	-0.0000043673605482
Mg	1.3403004403336394	21.0887158123710279	-11.7129722416603688	0.0000710487749876	0.0000617655586916	-0.0000403698612972
Mg	-1.2370223919656098	22.7245951444154990	-12.3142423403400088	0.0000072772818318	0.0000057769454632	-0.0000446874343210
11
REF_energy=-243.8224053814646197 charge=2 Properties=species:S:1:pos:R:3:REF_forces:R:3
Mg	2.5430046282163716	12.3473665587708048	-10.9976003851882442	0.0000406037103271	-0.0000225099284364	-0.0000658318229871
Mg	2.0792807265273856	18.3513350286567487	-11.1873662583600080	-0.0000376070226975	-0.0000797505306589	0.0000308440097487
Mg	0.4640385504889485	27.0570299103084224	-9.8994574650899185	0.0000010179536005	0.0000451460631842	-0.0000405326537351
Mg	3.0877847730958323	26.0760044391602150	-11.2529941985299455	0.0000062447873182	-0.0000298320665531	0.0000447431750919
Mg	2.3003841663044149	15.3864496898173346	-11.0803621946692719	-0.0000096537654047	0.0000856600889764	-0.0000297690276297
Mg	1.0255999365901356	23.9350720224130527	-10.3359962958423814	0.0000374059349195	-0.0000074105933501	-0.0000159024817631
Mg	-0.5222610530135302	24.9092758873009785	-7.9368307336410897	-0.0000039498446783	0.0000253819180418	0.0000183419405885
Mg	0.6046974926800599	25.8400762329762976	-12.7589997187457378	-0.0000448509367878	-0.0000267284303481	0.0000316537503177
Mg	1.9179025379694810	21.2597388742967546	-11.3840002135420768	-0.0000259429431151	0.0000457525464167	0.0000714970157726
Mg	1.8147465516156209	28.5297931386707404	-12.3571035181449389	0.0000204074848002	-0.0000576091238929	-0.0001050471845868
Mg	2.6829770724603001	23.6483241326537730	-13.0237794612797106	0.0000163246417180	0.0000219000566203	0.0000600032791822
11
REF_energy=-252.6434486751330155 charge=1 Properties=species:S:1:pos:R:3:REF_forces:R:3
Mg	0.1306908274750857	17.7432970154808132	-14.7422264567407382	-0.0000359570836362	-0.0000333388981591	-0.0000601933122777
Mg	0.0822417900992267	22.0251311569010113	-8.2702897409782530	0.0000668511422868	0.0000105217333242	0.0000474335677918
Mg	3.1159252879929888	23.7783828694516295	-10.9536868756070298	0.0000221213490742	0.0000920195843890	0.0000775190563511
Mg	-1.8828263455166931	23.5246138726464693	-10.4174235337602692	-0.0000322889840510	-0.0000532160851518	-0.0000195923164137
Mg	2.8864138849935963	22.7935963807483084	-8.1969947920135073	-0.0000734807096316	0.0000173472234385	0.0000205174507114
Mg	2.0672701468031924	20.7952495844646918	-10.2105143387941162	-0.0000078632289590	-0.0000306300969591	-0.0000506649810166
Mg	0.3362351787347986	23.0314554760945320	-12.2591193845979287	-0.0000354607832909	-0.0000720525388405	-0.0000498105354319
Mg	0.7228647913694148	19.9125106488959389	-12.7183839319220144	0.0000653514411026	0.0001295453926450	0.0000806872798787
Mg	0.7095035320563967	24.6378148735642242	-9.6565303923446084	0.0000813128162991	0.0000333320613586	0.0000060861136582
Mg	-1.0232293014726843	20.7239540668206530	-10.5816694147212331	0.0000103609183542	0.0000145112550920	-0.0000331002355999
Mg	2.8871260185408505	21.7999027395125964	-12.9884830582307611	-0.0000609468775481	-0.0001080396311368	-0.0000188820876513
11
REF_energy=-243.8209955731082914 charge=2 Properties=species:S:1:pos:R:3:REF_forces:R:3
Mg	-14.9326548131848291	17.2494416302641973	15.4447847838950612	0.0000281203128342	0.0000180585743797	0.0001675134620873
Mg	-19.3068904385553175	13.9857513189003750	17.1799732465997543	0.0000774213970239	0.0000643784615534	-0.0000579115864367
Mg	-17.3065329992111288	15.4361077486823319	15.6350786902614391	-0.0000957916164451	-0.0001277789507048	0.0000825106056062
Mg	-12.1616562862948197	18.8762450569708804	11.7926113998177815	-0.0001177053015158	0.0000114886258967	-0.0000125251237803
Mg	-14.9342347828809672	19.0252777227745575	12.9640896852578429	-0.0000172547842201	0.0000037458112427	0.0000181631896930
Mg	-14.3879848792581946	14.2725151199968732	14.8527334248280702	0.0000212478576985	-0.0000664661906838	0.0000236166893184
Mg	-11.4813527704995675	13.8348171651665446	13.7504760702235735	0.0000902006614754	0.0000260930390582	-0.0000628802431432
Mg	-21.4597485694844075	12.6499355828543703	18.7413087664883058	0.0000529712140523	0.0000292840655848	-0.0000401317664790
Mg	-12.9320216018410399	16.4206911520009022	13.2379823407212260	0.0000709963048470	0.0000494670054970	-0.0000303172691667
Mg	-16.0074505142511114	16.1703933086660641	13.0403175229412920	0.0000028114206784	-0.0000514555110426	-0.0001183056429139
Mg	-23.6960712924714052	11.3215241610867992	20.3362495944568735	-0.0001130174664286	0.0000431850692187	0.0000302676852150
11
REF_energy=-243.1242917624606150 charge=2 Properties=species:S:1:pos:R:3:REF_forces:R:3
Mg	5.1534379783678066	9.3591887759831511	-9.4875635412126726	-0.0000500826246383	0.0000144494782818	-0.0000400917678937
Mg	3.3917012373906590	11.4064142767491905	-8.4092048634829926	0.0000720851386885	0.0000047599410855	-0.0000187004078260
Mg	7.8500481841628620	10.5304634880638179	-14.3472067993729411	-0.0001514793763646	0.0000492449636319	-0.0000103117198268
Mg	6.4732656218849982	9.0547241946513317	-12.0358626485462246	0.0000269816039635	-0.0000046037982107	0.0000146081774049
Mg	0.4683571444084169	12.1724168998336069	-8.1583117863155348	-0.0000825612800490	0.0001083573688434	-0.0001165856672546
Mg	5.3559396940004298	7.4390143733327871	-7.2578295969135747	0.0000122539526590	-0.0001448836867533	0.0001191057588185
Mg	8.7180582039292691	8.5471319479104881	-16.4200301493310938	-0.0000370528910126	0.0000381781768802	-0.0000416923818785
Mg	3.3920754735627723	14.0165000419277650	-6.8657017625041297	0.0000834692171841	-0.0000747498402674	0.0000346732010435
Mg	6.1602634009535420	8.0801990646926480	-14.9272502732171493	0.0000414662550240	-0.0000565677594497	-0.0000150211698381
Mg	5.5744934825603289	5.4167901187245855	-4.9337448323564956	-0.0000004394567061	0.0000292370323823	0.0000233885372921
Mg	8.8330531473492986	7.7818772280733084	-13.5265213722073412	0.0000853594612515	0.0000365781235759	0.0000506274399587
11
REF_energy=-243.7655910083423407 charge=2 Properties=species:S:1:pos:R:3:REF_forces:R:3
Mg	-12.7127698036044041	10.5559644626363376	20.7443569112862747	0.0000087157444663	0.0000130536450078	-0.0000665285762700
Mg	-14.1094152842255465	9.4918669050498856	18.1499707759821050	0.0001584711273939	0.0000599728329083	-0.0000197884474260
Mg	-14.6747743943537259	9.3881223858749880	14.9979821573229763	-0.0000065035389704	-0.0000273732562143	-0.0001405253425147
Mg	-16.8204312445692814	7.5925072686300359	13.7682786622487985	-0.0000575928073546	0.0000190692204218	0.0000522605137827
Mg	-17.1516421797285048	14.2704932179855657	17.0459728223460658	0.0002329959687510	0.0001104344035259	0.0001271537506222
Mg	-18.7005664900573265	13.0273003564370402	14.6317817954256792	0.0000724845498906	0.0000363738985850	-0.0001479591948224
Mg	-17.7171205597064834	10.2841822661207640	14.3141111322403560	-0.0000377308511589	-0.0000593046952680	0.0000508439772661
Mg	-14.6984437504012249	12.3872056558148493	19.3947893993105502	-0.0000897608502684	-0.0000572317217022	0.0000148002534966
Mg	-16.1382014459199539	11.3462804689351593	16.7815556584167496	-0.0000097929784942	0.0000802290503195	-0.0000146862094042
Mg	-15.7271398712198529	15.1828419272543886	19.4627698071211412	-0.0002291480984261	-0.0001015191777260	-0.0000029476739313
Mg	-16.7629717711060522	8.3820249913496632	16.7290942083861083	-0.0000421382658291	-0.0000737041998576	0.0001473769492009
11
REF_energy=-259.5282567537709610 charge=-1 Properties=species:S:1:pos:R:3:REF_forces:R:3
Mg	1.8128061850970416	21.6780188955718209	-7.5744611660647978	-0.0000502311854426	0.0000263401913814	0.0000132668753025
Mg	0.3082450749830905	24.0844835777890474	-8.4458193440267753	0.0000250642324025	-0.0000126062744835	-0.0000182465818461
Mg	0.2901421941662551	20.7043411726618309	-12.1712139809133024	-0.0000392459516150	-0.0000368085810690	0.0000190702898786
Mg	-2.4660174391677079	21.1574663172480619	-11.3967957748409798	0.0000384338419618	0.0000533959050362	-0.0000137207226013
Mg	2.1497471593809441	22.7885536512212639	-10.3782284921038137	-0.0000166354476323	0.0000161801865939	0.0000584521686212
Mg	1.5193572291859527	23.3810160449738795	-13.1886513285510532	-0.0000382845611855	-0.0000090914632263	0.0000017229556307
Mg	-0.5746913456474068	21.1883663506365174	-9.1917799892800289	-0.0000283544313170	-0.0000429399957072	-0.0000098129196275
Mg	-0.6910131958026906	23.5793885951413458	-11.1987505327806147	0.0000570526672838	-0.0000262977521756	-0.0000289379938489
Mg	3.2206673165667588	20.8263595690360113	-12.4230496574478817	0.0000031016167910	-0.0000157977452184	-0.0001198082631080
Mg	2.0201028894405373	21.1580170511311145	-15.1295069219605143	-0.0000060451315467	0.0000449323423429	0.0000026644586160
Mg	1.9265372410481263	19.7320722384303018	-9.8962035121898992	0.0000551443502997	0.0000026931865256	0.0000953497329828
11
REF_energy=-251.1350329164717436 charge=1 Properties=species:S:1:pos:R:3:REF_forces:R:3
Mg	3.0202601468441861	20.6842884985379456	-14.9038437709339657	0.0000136443413057	0.0000792683092409	-0.0000422500207817
Mg	1.0553931265155732	18.8956349690142922	-16.7445406673638928	-0.0000256504895356	-0.0000639058984903	-0.0000527661101318
Mg	3.4911261916242537	19.2455076859508054	-12.3567464831146445	0.0001550648337135	0.0000294526897481	0.0001169515511974
Mg	-2.8934921531709334	20.5756431101191666	-20.5752420415696662	-0.0000688314978539	0.0000093830006024	0.0000259503779129
Mg	-0.3459047144368728	21.2950224636477010	-15.6669296282592807	-0.0000321409405147	0.0001412162195823	0.0001127655997130
Mg	0.8473534311676768	19.0061866490694484	-13.7267124988442646	-0.0001425993600712	-0.0000717155739120	0.0000478472050075
Mg	5.0949113058343247	19.3896773299216854	-9.8153441882091705	0.0000268286466040	0.0000195074116280	-0.0001324538348300
Mg	-1.7482720824761970	18.6976916386583447	-15.5578108520623157	-0.0000998979623020	-0.0000798074341362	0.0000251362106303
Mg	3.3870328615150616	17.7483902553993538	-14.8732327367717350	0.0000407791416353	-0.0000553813004112	-0.0000709716215754
Mg	-1.3345227034560243	20.0071395535894752	-18.1534261455227792	-0.0000267931546927	-0.0000113215834985	0.0001037675691294
Mg	-4.7541181248198177	21.1648399051341798	-22.9782116455658603	0.0001595964417115	0.0000033041596464	-0.0001339769262715
11
REF_energy=-244.5076195661217753 charge=2 Properties=species:S:1:pos:R:3:REF_forces:R:3
Mg	-14.6651403331457697	11.3601149723962020	16.3944005231197494	0.0000206334211434	-0.0000074824642367	-0.0000134830976777
Mg	-10.1201356095780994	11.1127066538805277	19.4440330790501150	0.0000534984719664	-0.0000157767802266	0.0000112537954169
Mg	-13.8032546902788749	8.8864470206504667	17.9819817839169787	-0.0000460448573312	-0.0000261709803266	0.0000178388432001
Mg	-18.6828057001092951	8.7237479803354248	19.0261885448174404	0.0000703035755751	0.0000241305456274	0.0000523071221907
Mg	-16.1618806664297630	7.1574559045505790	18.8249110282145509	0.0000032391994577	-0.0000765421875388	-0.0000232172504758
Mg	-14.9746262477940615	8.9886994198015220	20.9379929613109361	-0.0000515730243247	-0.0000068362376763	0.0000017551526159
Mg	-13.3001086880248245	6.5450169704113810	19.8447489479666146	0.0000079334905277	0.0000281553709392	-0.0000174888702536
Mg	-16.3764823428455024	10.6124067376111775	18.7382073117535164	0.0000238810719109	0.0000430471674225	-0.0000210025455071
Mg	-12.0181895069052658	9.2356577685926773	20.6269689221095582	-0.0000168180513103	0.0000277140636212	-0.0000412851030790
Mg	-13.5041477323566763	11.6706327585733014	19.3311700145006675	-0.0000536599511838	-0.0000002459141606	-0.0000030217007073
Mg	-11.7300713847705982	10.8631053461740805	16.9794196592372764	-0.0000113933464314	0.0000100074165552	0.0000363436542768
11
REF_energy=-257.0952492357729398 charge=0 Properties=species:S:1:pos:R:3:REF_forces:R:3
Mg	-12.3205910556794773	10.3471226651697847	20.2962869325040174	-0.0000782685565060	0.0000253820409252	-0.0000010322146472
Mg	-16.5708580684971309	10.4344844805094148	17.2787378491406187	-0.0000302410833600	0.0001484795365961	-0.0000431763045176
Mg	-14.6978205791311396	8.2465844359944143	16.3160397555500616	0.0001844081952261	0.0000537593153895	-0.0000429673801382
Mg	-15.0268085948722092	9.0401908569241662	19.4217406507455728	0.0001542562870547	-0.0000627773717861	0.0001772487660761
Mg	-13.0639020302908406	7.6354606972435315	21.2967106847947747	-0.0000740851450151	-0.0000689668664934	-0.0000752417795350
Mg	-13.2446258502179610	10.7042387846108387	17.3048203615715543	0.0000430070473789	-0.0000628436641678	-0.0000657828916727
Mg	-11.8994401481575665	9.4393220398470561	23.3188099805108351	0.0000133553648678	0.0000621786501884	0.0000726708613698
Mg	-12.0718959497204512	8.1254114568940601	18.2870242148348474	-0.0000044825627350	-0.0000301445924901	-0.0000671301403287
Mg	-11.9436995810886817	8.8682576313928969	15.3891844775728686	-0.0001058815018881	-0.0000127368464966	0.0000978982237595
Mg	-10.1271334206916972	8.4108440405255180	21.0676510538068378	0.0001032411360660	0.0000517397624815	-0.0000096812603843
Mg	-17.1240469714367158	7.5783552838695778	17.9110448427164890	-0.0002053091810894	-0.0001040699641467	-0.0000428058799816
11
REF_energy=-244.0253985196097801 charge=2 Properties=species:S:1:pos:R:3:REF_forces:R:3
Mg	2.2323246435059212	23.3966305638892216	-5.2429213048473189	0.0002879717137284	-0.0000091338095273	-0.0004190724711723
Mg	1.6133626857463665	21.3610199436383255	-10.5813890730454361	0.0002393797873679	0.0001778753803089	0.0002108459324250
Mg	0.1799913199486824	23.1602459526395101	-2.9449754619545723	-0.0000765036417351	-0.0001911145296647	0.0003096754156303
Mg	1.3163487213990190	18.7229564784483067	-12.0861088063322040	-0.0001864142063831	-0.0003132586147962	0.0001050345590168
Mg	2.5634366279722660	22.6053957852071044	-8.1668229207719101	0.0000764363738141	0.0001029985495591	0.0000977505900299
Mg	3.7749460020910308	25.2052903702074360	-7.3440467091747594	-0.0000944878304040	-0.0000518939739872	0.0001023888757698
Mg	4.7692776845194746	24.8310604794983085	-4.5880723938860175	-0.0001015813705899	0.0000454116481468	-0.0000041384922372
Mg	5.0349804550842361	22.5913884964081824	-6.4951659727222752	-0.0001532144602417	0.0001605651217711	-0.0000092194877407
Mg	-0.7385257694317194	20.9516073614508116	-12.4793170517580165	-0.0001888614050541	0.0002877088621200	-0.0000942697462323
Mg	2.0878034230630194	21.2641396897626151	-13.5976846700992358	0.0003585051362734	-0.0000820238718814	-0.0001852928458811
Mg	0.1768277885829256	19.2957363228603569	-14.7850810595496345	-0.0001612300967760	-0.0001271347620491	-0.0001137023296083
11
REF_energy=-252.2557566926183483 charge=1 Properties=species:S:1:pos:R:3:REF_forces:R:3
Mg	-0.7777829583091466	21.3772112250779180	-10.6315404238772064	0.0000611493661015	-0.0000602023434382	-0.0000061594986299
Mg	1.4301222951834716	23.7266770294524747	-10.2123247186304731	0.0000633723541305	0.0000201237107841	-0.0000456679332149
Mg	0.3971776981420587	23.0183306495436568	-12.9207211894380887	0.0000356108040478	0.0000667434661781	-0.0000220064766853
Mg	1.0599434001009778	20.0135391916016978	-12.5115630051460514	0.0000502850784011	0.0000548699947347	-0.0000254848762073
Mg	0.6328646217424049	18.1988944336660232	-10.2164198974610514	-0.0001219152785538	0.0000064058428371	0.0000218003801322
Mg	-1.6468412650216553	24.1293053713713661	-11.0397415966520160	0.0001005325660770	-0.0000067487494321	-0.0000258333584265
Mg	3.3527681361424784	22.0856138537154969	-11.9258481288975684	-0.0000873461464171	0.0000768735314130	0.0000643523730068
Mg	2.9521452165872484	24.9116558149681637	-12.4953281975676251	-0.0001251043850403	0.0000585747793984	0.0000213552637436
Mg	2.1211888199787010	20.7651024521433527	-9.5782029497256520	0.0000988024263897	0.0000784953623982	-0.0000439631743010
Mg	0.3179451947460323	26.0054010917192393	-12.0262546139947855	-0.0000417611580303	-0.0001230049235039	0.0000231051310451