11
REF_energy=-254.9112918549216431 charge=0 Properties=species:S:1:pos:R:3:REF_forces:R:3
Mg	-65.6833887207611582	8.2142137047003754	12.7869662740913004	0.0001985210362856	0.0001278980276585	-0.0000293416094026
Mg	-67.2394064466359396	10.5410176497474861	13.7571315301906001	0.0002574127137589	0.0000822944010821	-0.0000423126752930
Mg	-66.3309185684253322	8.4663701145675248	15.6668277411846919	-0.0000019306206223	0.0000630955933502	-0.0002832206470623
Mg	-64.3375897495674707	10.3153336125290753	14.4291663912241006	-0.0001860701668489	-0.0000837660120783	0.0001828563353870
Mg	-61.7728976810574721	11.8337062728367748	14.9332877335187639	-0.0000879349336420	-0.0001804117632364	-0.0000608204763917
Mg	-59.1569570797884481	13.3688607342902319	15.5265123323567611	-0.0000933458393586	0.0001793328952398	0.0003955839954979
Mg	-56.5534561919272818	14.8978509180337237	16.1868511025108148	-0.0001762600298641	-0.0002210827131021	0.0001554708515411
Mg	-54.0166327866836440	16.3680951727641890	16.9208396461503128	-0.0000643958769084	-0.0001077399487422	0.0001205755229718
Mg	-52.0603363358274080	16.8379640802020702	19.1287865193066899	0.0001905936508716	0.0001229862516594	-0.0000502386140318
Mg	-52.7254575304097699	19.0399299071435024	17.2619614715063534	-0.0001211420672548	0.0000489140672014	-0.0001702538616996
Mg	-51.1136248362105476	16.7383312313378028	16.3234376388690308	0.0000845521335830	-0.0000315207990324	-0.0002182988215169
11
REF_energy=-243.5578983307614465 charge=2 Properties=species:S:1:pos:R:3:REF_forces:R:3
Mg	-0.0424509906586648	6.5655864924122271	-11.2685157666787248	-0.0000916764552460	-0.0000050072917129	-0.0000559380926407
Mg	6.4697679831483228	11.1596681847014647	-12.7379487670565190	0.0000965314561184	0.0000381695265509	-0.0000134844838881
Mg	4.5422215082163788	9.3327637775872088	-11.4942824596220525	-0.0001034302602135	-0.0000520778065244	-0.0000502521524916
Mg	2.6455663421818501	7.5215570224896764	-10.2505899132056353	-0.0000080041069869	0.0000599577958468	0.0000181371105100
Mg	8.8480148305671822	12.8650305031535641	-11.9908830330322207	-0.0000790072199892	-0.0000656052593092	0.0000592403726545
Mg	1.7432655978859071	4.7027697831839266	-9.5017284090119034	-0.0000177245445248	-0.0000222693189475	-0.0000632213577973
Mg	7.1522867591463566	12.3385602463259971	-15.4326104777843067	0.0001332384862553	0.0000617126968874	-0.0000172215844650
Mg	-2.1345504612229864	2.8685266691836655	-6.9695901375983862	0.0000335915317924	-0.0000540064929691	0.0001374941328665
Mg	0.5908618679353072	4.1742110101340355	-6.5169791530754138	0.0000769041748970	0.0000273029331045	-0.0000009235024599
Mg	0.4556502192399013	6.9405323998188537	-8.2041473419025497	-0.0000612006465225	-0.0000139845737831	-0.0000225332170160
Mg	-1.2988192988176821	4.6296909082893771	-9.1771093650775235	0.0000207775844199	0.0000258077908565	0.0000087027747276
11
REF_energy=-243.0735992195666597 charge=2 Properties=species:S:1:pos:R:3:REF_forces:R:3
Mg	-10.8443055406089162	9.2330568859823554	24.3071203943232419	0.0002581577829483	0.0001351053818512	-0.0003658175525691
Mg	-18.1157318108679313	10.2656563937237539	21.0276972398948736	-0.0000813747266997	-0.0000195303360456	0.0000961424963987
Mg	-16.2832714824782201	8.1481853994750324	15.6618531248552006	0.0001022016555509	0.0000699155590681	-0.0000921132084433
Mg	-20.3522288673302505	13.9657019681346171	17.2917583852392731	-0.0001269254506598	0.0001602841152605	-0.0000670384660754
Mg	-12.9950729559773279	8.3079274545253448	22.3853073496920665	0.0000622224230057	0.0000385107932235	-0.0000048933014793
Mg	-15.9603941453441873	12.1932832039575416	20.0542820359712159	0.0000315833724523	-0.0001086973972237	0.0001111545545252
Mg	-18.5111144083786634	12.0237540230388227	18.6597277244722406	-0.0000242934506250	-0.0000861602687618	0.0001142615676216
Mg	-15.2106392326212578	9.4976406015843011	20.9404238039164241	-0.0000192966930515	0.0000091382116704	-0.0001255277676040
Mg	-20.3726421912150180	9.4202844266051979	22.9868342772710470	-0.0000675636118765	-0.0001103060189392	-0.0000986466252033
Mg	-16.5850358930709092	9.7879731747567860	18.2822180239598850	0.0001308152283350	0.0000553256918196	0.0000584023829964
Mg	-11.5012019193995272	5.7226838251528935	22.8416642229781246	-0.0002655265293796	-0.0001435857319230	0.0003740759198326
11
REF_energy=-243.8965565933290804 charge=2 Properties=species:S:1:pos:R:3:REF_forces:R:3
Mg	0.5911712053334780	24.6826254064360633	-10.5331801879800047	-0.0000014619462598	-0.0000032609792606	0.0000089852781710
Mg	0.9689091678263534	29.4404115091936518	-11.5234114970506507	0.0000236802273591	0.0000091676841415	0.0000003776189649
Mg	-3.0940356071074575	18.2385834260902051	-11.8546153372493208	-0.0000213494224961	-0.0000049981538319	-0.0000515451575119
Mg	-0.8016285169936311	22.6453804589015384	-8.9136987147657418	-0.0000368823050437	0.0000151434964109	0.0000210855036498
Mg	1.3068568047207521	21.8429125218781088	-10.8711886793390562	-0.0000102661418898	0.0000348208837395	-0.0000132239518109
Mg	2.4670157207549233	27.0821935593905003	-10.5049436080554770	0.0000084307928205	-0.0000442677610272	-0.0000113184586239
Mg	0.3891526747983176	26.7839312145355244	-12.7275988052213407	-0.0000268097733247	-0.0000047539766296	-0.0000008307726534
Mg	1.3280524415473114	20.7709554553631364	-8.1389186382884944	0.0000605952996499	-0.0000543864204949	0.0000644687054593
Mg	2.6050465291607461	18.9873545148812468	-6.0247756303491498	0.0000081118143484	0.0000518916809622	-0.0000066276903373
Mg	-1.2647551953048426	20.4306988739698063	-10.7922130852862832	0.0000021747554914	-0.0000019797380200	-0.0000102092335690
Mg	-0.5032133020758723	27.4288735392254566	-9.8771111075183455	-0.0000062233006551	0.0000026232840102	-0.0000011618417385
11
REF_energy=-243.5372991096515420 charge=2 Properties=species:S:1:pos:R:3:REF_forces:R:3
Mg	-12.8466009009476174	16.5494612443246609	8.8949440386839438	0.0000399629487907	0.0000799110985834	0.0000710834597255
Mg	-13.6952036370879267	8.8761914667638120	10.1343679476288671	-0.0001303290247269	-0.0001914747022668	0.0000094655378461
Mg	-13.5032270006464135	19.1641233413230552	7.7814492371651784	0.0000026705213104	0.0000705658571198	-0.0000114230562733
Mg	-13.3296851964871408	14.3318205192658255	10.9453503494184901	0.0000403688324052	0.0000192455136635	0.0001122158973108
Mg	-13.6395261060258211	11.6982451012159760	9.4873583828465975	-0.0000358632323725	0.0000836616017569	-0.0000106468606279
Mg	-11.6087180202297109	13.7662263182389708	8.6174714662821223	0.0000625338725572	0.0000762421657053	-0.0000413018578219
Mg	-15.4504027731286477	16.8895087659079728	6.8986518443197404	0.0000384933391068	-0.0000181489171031	-0.0000687238763953
Mg	-13.6105043730544928	22.0717254830487271	7.0025120075197513	-0.0000445377839040	-0.0001411364493926	-0.0000577424950709
Mg	-14.5985659891515844	14.1574462250166082	8.1816635288138020	-0.0000103039179466	0.0000350453659653	0.0000769589600468
Mg	-15.3992330525747967	6.4384404279739682	9.5912551600259537	0.0000224613215182	-0.0000372634721861	-0.0000051790287026
Mg	-12.1314508846881601	6.8035862177086344	11.6792140466186449	0.0000145431232615	0.0000233519381543	-0.0000747066800373
11
REF_energy=-244.0329921501853221 charge=2 Properties=species:S:1:pos:R:3:REF_forces:R:3
Mg	-15.2581836237795816	11.4423922292489699	20.9524166601364712	0.0000328575304623	-0.0000111205117929	0.0000733432907417
Mg	-13.2561151519353562	12.0451470566637457	18.6612121035997163	0.0000633000276675	-0.0000589031680819	-0.0001064862052297
Mg	-11.4102010409389560	9.9693528542119179	19.5717584227781458	0.0000168361770656	0.0000644583846757	-0.0000585620987280
Mg	-14.5871891538457064	9.0060634083912525	19.1235761951735981	0.0000056128916389	-0.0000354945934913	-0.0000063618190114
Mg	-15.1073033967579367	11.7817268261150616	26.4901004873212251	0.0000624715813909	-0.0000016841297368	0.0001198517750326
Mg	-11.9010254893197356	9.2005816973724617	14.1195204487232093	0.0000335258670103	0.0000030450757692	-0.0000778410403728
Mg	-14.4927260799027255	11.0944457222944823	23.6864846728804679	-0.0000415736388993	-0.0001328348813610	-0.0002170439398817
Mg	-13.2587298061519920	9.1954843168771951	21.9391394336463605	-0.0001365400037597	0.0000273610834390	0.0001396392172464
Mg	-16.2166281675202839	8.7159830279764829	21.7638279122428706	0.0000484309576377	0.0000861658925756	-0.0000228044790792
Mg	-12.2039676838547440	12.2703373341455375	21.7282476827848043	-0.0000459312235642	0.0000581688043490	0.0000223064124351
Mg	-12.7658962880042974	9.6587769984612795	16.9188618596003941	-0.0000389901666499	0.0000008380436555	0.0001339588868470
11
REF_energy=-256.9802037495547324 charge=0 Properties=species:S:1:pos:R:3:REF_forces:R:3
Mg	-0.4160817870949682	25.1447160156413325	-9.0203739876313556	-0.0000061821046182	-0.0000173089276025	-0.0000106689959431
Mg	1.8813515001996111	25.0134660686504517	-11.2499941878542700	-0.0000379797158165	0.0000259111290478	0.0000033395525345
Mg	1.5376952450918029	22.3067193861031043	-12.8348397767574376	0.0000533996971513	-0.0000322901232826	-0.0000411545131790
Mg	1.6962701193938359	19.7224198354521008	-10.9665978301041864	-0.0000022768114658	-0.0000248007883956	-0.0000053149290128
Mg	3.8618559553827256	20.0297441777843837	-13.1086044194960341	-0.0000263740077623	0.0000045826382651	-0.0000000456740752
Mg	3.0837600579738318	17.3215180221587310	-12.1583770743781141	-0.0000091765686897	-0.0000134406317384	0.0000276749249613
Mg	-2.3174422534363543	22.6894658899227579	-9.4411617430784620	0.0000411511010008	0.0000205582963926	0.0000324364090708
Mg	0.6529538872590505	22.5059339115288957	-9.9018387829722148	-0.0000432538943503	0.0000016956425071	0.0000077134979377
Mg	1.0477466687538042	19.2238651302444481	-13.7123961703050394	0.0000054969947610	0.0000456401287962	-0.0000123868627791
Mg	-0.8724603206270852	24.0238388120610082	-11.8114013778373046	0.0000011462166633	-0.0000101027134431	0.0000108859603893
Mg	-1.0972582966652045	20.9582814366946018	-11.8971966290003710	0.0000240490931263	-0.0000004446505466	-0.0000124793699045
11
REF_energy=-258.0218921910080212 charge=0 Properties=species:S:1:pos:R:3:REF_forces:R:3
Mg	1.8819020038865597	23.9106286971354010	-13.5626354434980918	0.0001334384259003	0.0000129197562177	0.0000104720972548
Mg	-0.1475291401013609	21.9955505030507865	-12.7666292370843220	-0.0000688752345029	0.0000739526845851	0.0001501803964966
Mg	3.7335159773405584	21.8560037799587370	-9.6864110941666564	0.0001177428504780	-0.0000224536583164	-0.0000453336847260
Mg	2.3001083107688740	19.3865381760109088	-10.4410890173620459	-0.0001279240586788	-0.0001108738995457	-0.0000644507521508
Mg	-3.7245840117906330	24.5056230090375635	-9.3769819586008971	-0.0001478041927780	-0.0001880085213885	-0.0000084752209260
Mg	-1.2732660261570132	22.8021754926226450	-10.1314897087178579	0.0000463942626911	0.0000115084965215	-0.0000481816175061
Mg	1.5440793280541520	23.5781683834873519	-10.6998110407957565	-0.0000107877445818	-0.0000459430126939	-0.0001073419880679
Mg	0.9716317447533044	21.4931552259672642	-8.7062551706695537	0.0000076256442009	0.0001112364818502	0.0001536069717811
Mg	0.9638732177715057	19.2644867431061400	-13.0717070135831168	0.0000232254156497	0.0000007699803512	0.0000586240158088
Mg	2.9157476913959193	21.4122175219454363	-12.4953902293554346	0.0000169695330070	-0.0000469872033790	-0.0000759665490080
Mg	-0.6686754721878864	19.9587480392975181	-10.7105669093355047	0.0000099950986146	0.0002038788957976	-0.0000231336689565
11
REF_energy=-243.8945314811122103 charge=2 Properties=species:S:1:pos:R:3:REF_forces:R:3
Mg	-17.8702337652509406	10.0665982788651416	20.0238549155424614	0.0000651234840463	0.0000106319906920	-0.0000329370609256
Mg	-20.8061291647882953	10.4166441175325666	20.1287230298310043	-0.0000725839019644	0.0000125120377522	-0.0000834127604711
Mg	-8.1384656800765658	8.4391814646335046	21.7995283094499932	0.0000178191613709	0.0000062422103260	-0.0000726169204873
Mg	-15.6230261265827455	9.1083643638628597	21.5827762956962701	-0.0000618942920460	-0.0000027559774952	0.0000231252941512
Mg	-13.3952755227631393	8.0452969700095345	19.5873423951365275	-0.0000055319378315	-0.0000379350186616	0.0000473820835993
Mg	-10.6350378952451141	11.1777239667532093	15.4604724044799688	-0.0000977157032689	0.0000109028869636	0.0000038333932028
Mg	-11.9940536039340842	10.1936474277305980	18.0130543318908032	0.0000375085103848	-0.0000150243200124	0.0000013118288458
Mg	-15.2937139274361957	10.1934457581777309	18.6719400247789231	0.0000500871401000	0.0000389527014741	0.0000087274898633
Mg	-13.0025398462388004	10.8808227197151623	20.7256305456294641	-0.0000206525106982	0.0000298553509884	0.0000720585827287
Mg	-10.8957125504330445	8.8959206228006771	20.7493331615951497	0.0000733859053830	-0.0000416843755988	0.0000011781632282
Mg	-16.5518059752807289	7.4582512863692507	19.2599896167013149	0.0000144541445241	-0.0000116974864284	0.0000313499062648
11
REF_energy=-244.3157233622554827 charge=2 Properties=species:S:1:pos:R:3:REF_forces:R:3
Mg	-2.0408346054196898	21.7599523510842445	-9.8696763140904498	0.0001681802392683	-0.0000299078969423	-0.0000842222956995
Mg	2.5881115351073700	22.1094261420644536	-11.7226633541671674	-0.0000398269490179	-0.0000379262170014	0.0000208486981507
Mg	6.3111112676310261	19.7558186722469777	-9.8743829807496546	0.0000685895220284	0.0000048186289842	0.0000551902500808
Mg	4.0821981013845559	19.4017469535402540	-11.8182597710286768	0.0001255410037328	-0.0000449659648287	-0.0000376371049520
Mg	3.6410931777564799	20.9458179846762533	-9.2192156586787881	-0.0001210420876412	-0.0000123634423963	0.0000038484868003
Mg	-4.9060369773145096	22.3376030267168915	-10.5474165223537018	-0.0000807052045217	-0.0000449225357413	0.0000569722750090
Mg	0.8225686174817863	22.7921275712735039	-9.2848858434940844	-0.0000490391374813	0.0000320275513382	-0.0001213112942438
Mg	-3.1346717012918717	23.3022890319137019	-12.7771184044985251	0.0000338833480844	0.0001174424608098	0.0000521026539692
Mg	5.6137215087839030	22.0241116257146494	-11.5159185073274326	-0.0000653330002736	-0.0000216676908652	-0.0000089546915919
Mg	-0.2763250460054760	22.6276028799757611	-12.1080111001780448	-0.0000244690430376	-0.0000532442102302	0.0000334754584725
Mg	0.6265926286510887	20.1390910573917346	-10.5695275536192739	-0.0000157786911405	0.0000907093168731	0.0000296875640049
11
REF_energy=-257.4553001932858365 charge=0 Properties=species:S:1:pos:R:3:REF_forces:R:3
Mg	-0.7735524349787857	24.3137214938250281	-13.0400896829469559	0.0000105226492238	0.0000115021119975	0.0000162496604703
Mg	-0.6631883935907570	23.1902339485823461	-15.7767235491459701	-0.0000261506457515	0.0000001386377280	0.0000055147840732
Mg	1.0058885674786582	18.3648717720668415	-12.2887037261004686	-0.0000052122827748	-0.0000086355660994	-0.0000120558012345
Mg	1.7714312314647900	23.1323836054653498	-13.9939625470690370	0.0000153022936615	-0.0000101458214761	-0.0000293818003296
Mg	0.8947962148534320	20.3044098843366818	-14.6974713715403151	0.0000225192647728	0.0000068517507854	-0.0000375950399510
Mg	-2.7218301204062905	22.1558225778133462	-13.8916620372683663	0.0000037945356780	-0.0000155774475247	0.0000252094571177
Mg	3.1780047508567595	20.9916943330850430	-12.4259180872681974	0.0000003611973172	-0.0000092152006295	0.0000016387955271
Mg	-1.8393425574774611	20.4194439841564446	-16.1191888381060870	-0.0000198942412168	0.0000248762083161	-0.0000066433260492
Mg	0.1504883562261617	21.5360334568395402	-12.0672273620315895	0.0000041526102858	0.0000085974354730	-0.0000051180287944
Mg	3.7008749150841314	18.4028436226783505	-11.3095082673924203	-0.0000212230914045	0.0000195404412479	0.0000509192332954
Mg	-1.6066500291072310	19.4050567395799725	-13.3435616344909977	0.0000158277102084	-0.0000279325498181	-0.0000087379341251
11
REF_energy=-251.6559338017202094 charge=1 Properties=species:S:1:pos:R:3:REF_forces:R:3
Mg	2.6813634001262971	26.3276542864113843	-9.5349889817913560	-0.0000349550721830	-0.0000804891458835	-0.0000246317293467
Mg	-2.2017232552509398	23.0799655791441225	-11.3757833469181335	-0.0000844591613215	0.0000242993620204	-0.0000196229797701
Mg	-0.3437030269072235	21.8634567174182308	-9.6164037758183287	-0.0000205895668353	-0.0000367915065180	-0.0000063694824972
Mg	-2.1085308683290744	24.2161380512980955	-8.4911378870571692	0.0000350712765046	0.0000007476654509	-0.0000151096019280
Mg	2.5583533568458936	25.1783169121787935	-12.3666206047570792	0.0000709790792811	0.0000610943420795	0.0000500503256998
Mg	5.1663591987534963	25.5083808295867165	-10.8778738073595296	-0.0000175631928412	-0.0000461702560052	0.0000066976650779
Mg	0.8408990686701824	22.5624239367878552	-12.3760010243197769	-0.0001143785083055	-0.0001359084688445	-0.0001131161411672
Mg	-1.0874088235001165	20.3969608748495190	-12.2092876211308550	0.0000810632548717	0.0001644799511016	-0.0000141962709504
Mg	2.9209998396181787	23.3552317614961957	-10.1237588849958495	0.0000338599712496	0.0000442226259326	-0.0000054609159948
Mg	0.2080549752026267	24.7657643604361084	-10.3382638646007070	0.0000267829251060	0.0001274874506864	0.0001016766956621
Mg	-2.4796570696409259	17.8365975202539069	-12.9697974648013901	0.0000241889944735	-0.0001229720200202	0.0000400824352145
11
REF_energy=-243.5023527689993443 charge=2 Properties=species:S:1:pos:R:3:REF_forces:R:3
Mg	1.7505319069460366	-1.6338537637920416	-0.5697028529811499	-0.0000518027668004	0.0000593367521177	-0.0001381152078488
Mg	8.8262217374851186	5.3621412801329473	9.6782923667095488	-0.0003377625230904	-0.0000227380802089	0.0002101550953762
Mg	-0.7917844127866575	-1.4374482246902520	-2.2662568063339918	-0.0001586461958010	0.0001843320927969	0.0000562124342816
Mg	-1.1913279325822934	-3.9911636072714090	-3.8050278037492036	-0.0001849702779472	-0.0001210371558929	0.0000777889590226
Mg	3.4899192081087054	-0.2426749646526778	1.3265891360839250	0.0002043846206477	0.0000904403689504	-0.0002278210560983
Mg	1.5936493441074975	-2.9595889831029440	-3.3263862472176378	0.0000606884380308	-0.0000404613616232	0.0000833469687721
Mg	7.0216130242411854	2.5629855472913632	5.1141642878365143	0.0001286411557446	-0.0000846962409139	-0.0000168388464387
Mg	8.8023557890448494	3.9664964959047109	6.9956215518312810	-0.0000563012738748	-0.0000734008156655	-0.0002529023569579
Mg	-0.0219572105527685	-4.0878075624497265	-1.0353550601849180	0.0001458314984542	0.0000183417404130	0.0002335905740882
Mg	5.2483948987250448	1.1580140329712749	3.2228704363122032	0.0001680178094076	-0.0000495469860674	-0.0001525840543272
Mg	11.6792500366843566	4.8391494576587064	7.3348350571030254	0.0000819195152288	0.0000394296860939	0.0001271674901303
11
REF_energy=-259.6583152527205129 charge=-1 Properties=species:S:1:pos:R:3:REF_forces:R:3
Mg	-1.7284585092219158	23.5693104491691479	-10.8512593648528348	-0.0000191095860024	-0.0000048482618622	0.0000329369371677
Mg	-1.0177260090239244	20.9804049241997141	-9.7776947581557874	0.0000243916012754	-0.0000179741174040	-0.0000137778670942
Mg	0.4803167732023242	24.0766906294961700	-12.8787050672443986	0.0000095916515104	0.0000098046572198	-0.0000367130292018
Mg	0.3077315232608598	25.6778958846729424	-10.3855459149552036	-0.0000212761246846	0.0000468745198283	0.0000166863359104
Mg	-0.9290646191602897	21.5545246295833728	-12.7648025568096930	0.0000333430541199	-0.0000408223630339	-0.0000236952682752
Mg	2.5639725824160409	23.7727086103616827	-10.6847618958206283	0.0000392041955166	-0.0000015361201026	0.0000217575370890
Mg	2.1082743475682229	21.6983428543951042	-12.6469524882081821	-0.0000067339772141	0.0000206905584461	-0.0000170207176840
Mg	0.8699991148617811	16.2977986870687879	-12.1787046714742804	-0.0000231808805807	-0.0000254398358818	0.0000119012089973
Mg	2.0196108303207421	21.1242328566199760	-9.6599724075208595	-0.0000126412411171	0.0000291553220954	-0.0000071713969221
Mg	0.6560909963841053	19.3064407674013658	-11.5997748861378902	-0.0000258317508480	0.0000153960963013	0.0000128764732647
Mg	0.3550217999390667	23.2653286034903779	-8.6573118457163272	0.0000022430580245	-0.0000313004556065	0.0000022197867484
11
REF_energy=-244.2819103665395062 charge=2 Properties=species:S:1:pos:R:3:REF_forces:R:3
Mg	-22.9102042197632834	45.3139785517554969	25.1213195975398662	0.0001516516298481	0.0002388513220625	-0.0000255737726706
Mg	-20.8812919999545983	38.6126804939983970	21.9154028458099859	0.0000280422790646	-0.0000486473829723	0.0000720752577154
Mg	-22.9424088384454450	43.6576094859881820	19.3971682864811683	-0.0000848706327199	-0.0000463103816868	0.0000251440944669
Mg	-17.3844873115312133	38.0767915742314926	17.4738974956951090	-0.0000342319947507	0.0002173253418944	0.0002507079043089
Mg	-18.7917208191627587	40.7579470606631062	22.2742470633729290	-0.0002371273989053	0.0000045691433807	0.0000556264664639
Mg	-20.4940074479412999	43.5563645045172905	24.6964277439254651	0.0002178152147184	-0.0001991783126036	-0.0000750136839651
Mg	-22.6509443492174647	43.6844533760696407	22.5010678101321098	0.0000017238035840	-0.0000077979767110	-0.0002584191641054
Mg	-21.1625585896725887	41.2910404789331693	20.4383205647361557	-0.0000169823605650	-0.0000227660132245	0.0001376377256253
Mg	-21.4919139019149164	41.0632457268997015	23.4390866203182462	-0.0000766069245821	-0.0001562856058019	-0.0001835615003978
Mg	-19.0339535094766390	39.1530777073395981	19.7300131384303903	0.0001192410285111	0.0000892980323331	-0.0001646823540257
Mg	-23.3032296578228149	42.4502307278146276	25.3119311427251183	-0.0000686546442032	-0.0000690581666706	0.0001660590265844
11
REF_energy=-259.7369013135656814 charge=-1 Properties=species:S:1:pos:R:3:REF_forces:R:3
Mg	2.0903148083124319	21.4029495823946831	-12.7749467984953657	-0.0000107163446022	0.0000362473778156	0.0000019339987640
Mg	-1.7550553521957672	22.5093324405700059	-11.4992459556954127	-0.0000258238699011	-0.0000135313438184	0.0000006546667667
Mg	2.2514247239341345	22.1316712210613993	-9.9177006854348946	-0.0000128858964424	-0.0000229590943023	-0.0000293760622484
Mg	3.9320730155981378	23.7395219972033829	-11.9240321266397107	0.0000202689095719	-0.0000528931843459	0.0000138898707070
Mg	-0.5901319120611003	20.5812764531375585	-9.5527681457813767	0.0000443369684932	0.0000112942777393	-0.0000403354021409
Mg	1.5271324006938451	20.7430080807543540	-7.2424610160959055	0.0000047670529814	0.0000267769919083	0.0000765097265175
Mg	0.8450227700024354	23.9120239645069930	-11.8082801718990726	0.0000169478984389	0.0000176590873273	-0.0000067564291484
Mg	-0.2614604605786810	23.4344443503792519	-9.0891451440370119	-0.0000388868320312	0.0000175132870834	0.0000088289428715
Mg	1.7796511328431392	19.3203465920396056	-10.6743237239610966	0.0000312977186017	0.0000164550281778	-0.0000479283506026
Mg	-0.5054277354148485	19.9911176515108160	-12.4695005812295197	-0.0000384513353086	-0.0000374894002514	-0.0000163591254061
Mg	-0.4311244351559421	22.4740367145130016	-14.2610354742999270	0.0000091457301983	0.0000009269726663	0.0000389381639199
11
REF_energy=-243.6103617276480975 charge=2 Properties=species:S:1:pos:R:3:REF_forces:R:3
Mg	-18.9857993044641482	8.4075344604662057	17.0168421437949462	-0.0000331383391769	-0.0000442641561308	-0.0000560211588162
Mg	-18.0576872121483056	13.5346150322599481	22.2048847268961538	0.0002106747147181	0.0000719589000021	0.0000292013453955
Mg	-18.7819691045447392	9.3660803064929432	19.7784656528357097	-0.0002105069706413	0.0002612918289834	0.0000899944649691
Mg	-14.0942130126865965	9.2646097402186420	21.2643312713455650	-0.0001426511946816	-0.0000665834068504	-0.0001504678895269
Mg	-16.1672302487930750	8.0264345513305599	15.8815125496554579	-0.0000170441764013	0.0000355092072450	0.0000339659261196
Mg	-8.4119861092102592	8.9560176876527819	23.1948933417774619	-0.0001444367893231	0.0001942336352090	0.0000677648208669
Mg	-20.1306510135227192	11.7403265069158511	20.8412941119924717	0.0001372264247933	-0.0001358414424642	-0.0000728888820485
Mg	-16.6382247586408027	10.9560829252072178	21.1591548481602771	-0.0000157990426106	-0.0000838729649435	0.0000772754641826
Mg	-16.8253801336482702	8.0022585016285923	21.5526289851809736	0.0000749943123637	-0.0001770343162881	0.0000158439832471
Mg	-11.2881039692274303	9.1571693456982146	22.1824718691540106	0.0001486051255166	-0.0000384097515177	0.0000578242403063
Mg	-15.9524969910076990	8.9485367074790449	18.8581665852584059	-0.0000079240645571	-0.0000169875332448	-0.0000924923146954
11
REF_energy=-251.8927476569153043 charge=1 Properties=species:S:1:pos:R:3:REF_forces:R:3
Mg	5.2833542197071566	-2.0456546578407573	-4.1397831618541501	-0.0000912788523315	-0.0000552636164568	0.0000096068038898
Mg	2.3035372421146203	1.6381168499613810	-2.2384527593036609	-0.0000365310900609	0.0000757820004547	-0.0000719328368163
Mg	6.9953225505972414	-2.6068786801441122	-1.4607272961451232	0.0000147714103986	-0.0000138631471630	0.0000048970532966
Mg	2.3675954110470907	3.1595646179967836	-4.8050771549308777	0.0000247652503933	-0.0000755025252582	0.0000364449808802
Mg	0.6941169691488253	0.7672677328094933	-4.5366483029486622	-0.0000083921858208	0.0000129425742562	0.0000041332527951
Mg	8.2636037304353227	-2.0693379707988693	-4.1404750009790430	-0.0000092922740655	0.0001090907029016	0.0000211127706479
Mg	4.0939272626002108	-3.3626040245933986	-1.5909928826225594	-0.0001060712925347	0.0000413521593852	-0.0000040087387794
Mg	2.3411078419572897	-1.4472340920048077	-3.0488221036709184	0.0000154428760613	-0.0001196677598655	0.0000298887737970
Mg	5.1200729198876882	-2.3074103052660542	0.9221237592800653	0.0000104980028425	0.0000164088584225	-0.0000193867235703
Mg	3.8118999462923275	0.5405399657781037	-4.7112647319096084	0.0000561483350122	0.0000829587037711	0.0000216732932852
Mg	4.7191322832185607	-0.4887167397983513	-1.5055279787655176	0.0001299398201054	-0.0000742379504478	-0.0000324286294258
11
REF_energy=-259.7761032438381790 charge=-1 Properties=species:S:1:pos:R:3:REF_forces:R:3
Mg	2.7337269598190925	20.9770471117649500	-11.4610436787394896	-0.0000149872769172	0.0000008780630199	0.0000068362860352
Mg	0.8367334779767824	20.7501007076552533	-8.9968174227638631	0.0000036563359277	-0.0000146526219949	0.0000095217451494
Mg	-0.9185158643470247	24.0865615873496886	-12.0490647214045055	0.0000042466959659	-0.0000266878879793	0.0000351235717401
Mg	-1.6394841814173136	18.8087926226177871	-9.1301252633883117	-0.0000158589010200	0.0000443583152526	0.0000466983869816
Mg	2.9511406100660280	22.7862483951049448	-9.1233983281029456	0.0000002069052404	-0.0000245524919839	0.0000049480403720
Mg	2.0327797911138279	23.9774370285689926	-11.6903830495790579	-0.0000099878393355	-0.0000223783074232	0.0000153149170186
Mg	-1.4486638875612075	21.5180146230749365	-10.7244771427654229	-0.0000112281582709	0.0000714285893355	-0.0000176979605235
Mg	0.1505781628271757	23.6476082359649062	-9.3472466113898669	-0.0000431879370503	-0.0000231595908609	-0.0000118098773126
Mg	3.3712909169722574	22.7175592052884099	-14.0189368114399429	-0.0000001340305105	0.0000303310514770	-0.0000420229058231
Mg	0.3138586104898359	19.2421396414999641	-11.5213075764150119	0.0000623717487891	-0.0000242875256700	-0.0000265875829553
Mg	0.4989743600382063	21.7282198891794245	-13.1506392175800002	0.0000249024571812	-0.0000112775931728	-0.0000203246206823
11
REF_energy=-243.4753760151072015 charge=2 Properties=species:S:1:pos:R:3:REF_forces:R:3
Mg	-17.7186996346751684	10.0368872456459037	18.9930782818494386	-0.0001728716435337	-0.0000949681513659	-0.0000161015295839
Mg	-21.4809758740954031	12.2791989293353048	15.8764942026896652	-0.0000063374323552	0.0001376689537528	0.0000338008698182
Mg	-15.1293204924849434	13.7999407228509128	12.6079907097187807	0.0000004986981955	-0.0000216823273151	-0.0000408584484122
Mg	-15.6140123250964233	7.6672038767759600	18.5255086769582924	0.0000146024423320	-0.0000832679160013	-0.0000116773632182
Mg	-14.1383460495852749	15.4514573173164873	10.2468479848528968	-0.0000122529168214	-0.0000739756084969	-0.0000536963914175
Mg	-18.5534360155229159	11.6301738818714657	16.6617406517606099	0.0000355308854083	-0.0000446987758130	0.0000558784354895
Mg	-14.7136254310433401	9.9548146688084174	20.0110529895737663	0.0000437243924028	-0.0000058115221815	0.0001080295429786
Mg	-17.1881069790327814	8.3022046827305527	21.2027143513525473	-0.0000404578462101	-0.0000802349510173	-0.0000634635787109
Mg	-16.0170551447518861	12.1768247800764513	14.9038920627724192	0.0000169829666607	-0.0000682312935717	0.0001117793370112
Mg	-15.4382696907522163	10.3203694111809146	17.0654841890665629	0.0000450640874229	0.0001943473814311	-0.0001358467528123
Mg	-12.8401247542107182	8.9548638771479201	17.6870602903011580	0.0000755163664981	0.0001408542105788	0.0000121558788575
11
REF_energy=-243.6492721308507043 charge=2 Properties=species:S:1:pos:R:3:REF_forces:R:3
Mg	-1.4177662599922392	21.8813556494235506	-17.0841813985465620	0.0002977801729464	0.0000120328895811	-0.0002384696036021
Mg	0.4942435684443297	21.9942446505131954	-11.8947912523886892	-0.0001557031297004	-0.0000412874992303	-0.0001046243048847
Mg	1.0098105679382456	24.2975220151825688	-10.0591150552743862	-0.0000181516832521	-0.0000129180325363	0.0001085922841976
Mg	2.0235838955104399	24.6822834332158756	-5.3709978119036945	0.0001201733495038	-0.0000629510109621	0.0000967704090698
Mg	-0.2740035009633798	18.2864467169394089	-15.9840612229281902	-0.0002530862253094	-0.0000756474231820	0.0002171782874930
Mg	5.9696860543106087	23.5723908501317645	-9.0116185269589320	0.0000786183554621	0.0001121674559580	0.0000197498547256
Mg	3.1799116205892104	23.7708003585666106	-7.9260320262942106	-0.0000230302058028	0.0001802468070620	0.0000141010673170
Mg	-0.1079749087598554	23.7609866446853530	-7.2739787287436073	0.0000144034891755	-0.0001894559424746	-0.0000604776264151
Mg	-0.1661488295441421	20.9169523633661285	-14.5091112603824328	-0.0000097162300511	0.0000840025817836	0.0000075700711439
Mg	1.2238646327725013	21.6435829631550618	-9.0168274147867500	-0.0000147930839576	-0.0000935830947799	0.0000451727216551
Mg	3.5206541668659033	22.6794283788831592	-10.7726064944452204	-0.0000364948090144	0.0000873932687806	-0.0001055631607002
11