11
REF_energy=-244.2982786336996526 charge=2 Properties=species:S:1:pos:R:3:REF_forces:R:3
Mg	-0.8775147986788860	21.2662650158484681	-7.5885382962791432	-0.0000489226867606	-0.0000244010608061	-0.0002176012210572
Mg	1.5996074705353620	22.5097597966229088	-6.5331433204657010	0.0000411358958179	-0.0000029820982533	-0.0000690856223743
Mg	-1.0996688952747853	22.3115167874300120	-10.3995962622183473	0.0003097515769443	-0.0001581957501703	0.0001685187767088
Mg	0.6167182969188287	21.0414430408143964	-12.4679550148129152	0.0000404295328028	-0.0000787482891921	0.0000422146195919
Mg	5.0907019621144940	22.7204452617142039	-13.6102291147479910	0.0000573648956073	0.0001054744605024	0.0000065306966739
Mg	2.6441768150091036	21.4671901256872211	-14.8543210528840284	-0.0000412357023943	-0.0000981247183061	-0.0000774055104756
Mg	2.4561069337592198	23.4752953521662917	-12.3973828026413617	-0.0000672341571655	0.0000659091869468	0.0000466028570865
Mg	0.0538851712015953	19.6124626376081288	-9.9229964934114498	-0.0001157909344956	0.0002535138067014	0.0001621402890120
Mg	1.8712328409433696	22.0953562290805046	-9.5295442878998600	-0.0001853731277574	-0.0001151376432371	0.0000536985514073
Mg	3.6016613032709093	20.7485955646531259	-11.9102667823522808	0.0000323395546731	0.0000178351868845	-0.0000773170445425
Mg	-2.8754134809938678	19.9257878499157499	-10.3393049247977267	-0.0000224648472720	0.0000348569189300	-0.0000382963920308
11
REF_energy=-252.4975602527774470 charge=1 Properties=species:S:1:pos:R:3:REF_forces:R:3
Mg	0.1057440612724879	23.7489266848030560	-10.2850712768954651	0.0000165686022827	-0.0000305728928138	0.0000963495870852
Mg	0.8117449763990880	21.0668893448494359	-9.1325445253647430	-0.0001124923742372	0.0001380715492604	-0.0000056728317294
Mg	4.1195872068796255	19.6745044067071184	-12.4919100060235273	-0.0000689690479882	0.0000186262973394	0.0000442429534085
Mg	1.2847936016323029	20.5689030807411584	-14.0401507362306877	0.0000157859492574	0.0000161382345414	0.0000435765862456
Mg	0.3503555061920273	23.4708593413826136	-13.4419628509721321	0.0000101866199151	-0.0000386426188974	0.0000066121895332
Mg	2.3373840811249997	22.1127063371953412	-11.7064602717711175	0.0000091497111145	-0.0000255474250122	-0.0000218364723902
Mg	1.5251959692536221	19.0634191157824091	-11.2523496446123641	0.0000446476805863	0.0000085422586238	-0.0000465786833259
Mg	3.6799386354472516	20.3209827698179737	-9.5948728618416812	0.0000143790123944	-0.0000627540287215	-0.0000486744764121
Mg	-2.0538757189659167	21.9406798317894172	-9.2690371421189894	0.0001001189310554	-0.0000159701022912	0.0000890460306205
Mg	-0.7058769550449688	21.1284563343918386	-11.9134185233646530	0.0000865081263058	-0.0000625983268927	-0.0000818522959271
Mg	-2.4843900800358054	23.6821690752043672	-11.6742761723724602	-0.0001158832106862	0.0000547070548637	-0.0000752125871082
11
REF_energy=-251.6996317757940176 charge=1 Properties=species:S:1:pos:R:3:REF_forces:R:3
Mg	2.0461948838243815	21.1845113098151323	-16.4264709019047039	0.0000132754850174	0.0000085669441244	0.0000170467330948
Mg	1.9272053496957526	24.0274495538767745	-15.4249165019338150	0.0000215569940359	0.0000804415041102	-0.0000580811193453
Mg	2.3383258277073451	21.8605831519524614	-13.4952180656233747	0.0000425765120316	-0.0000547002142213	0.0000152972292651
Mg	0.4257421444019756	19.4831630505540581	-14.4859286041104607	0.0000151883586484	0.0000631909253850	-0.0000696684209408
Mg	-3.1450682549050333	22.2314502706200940	-15.9750874671564045	-0.0000900726718408	0.0000717963579319	-0.0000493930947743
Mg	-2.6230534008409765	19.8740283373512021	-14.3931112337900853	0.0000162765539021	-0.0000226509550442	0.0000657387392331
Mg	-0.4864235081778587	22.3621046951105598	-14.7662619314898365	-0.0000220296231254	-0.0000904961702433	-0.0000134710488603
Mg	1.3503933083556461	18.2593123756425264	-16.9504386508224236	-0.0000277919699281	-0.0000458735195673	0.0000712704402968
Mg	-1.1154715284184220	20.2246852127472536	-16.9558732329565558	-0.0000059378776599	-0.0000099046384852	0.0000253960730807
Mg	1.8678140752035683	15.8932346868804597	-18.7726183186839961	0.0000453870979770	0.0000499737791294	-0.0000234963609230
Mg	4.6696775317772135	22.7223349148647529	-15.2401818644678038	-0.0000084288590582	-0.0000503440131197	0.0000193608298734
11
REF_energy=-243.4825406976286217 charge=2 Properties=species:S:1:pos:R:3:REF_forces:R:3
Mg	-25.3545230326192943	39.1832087506597091	13.2403832369059256	0.0000167021567613	0.0000271076376194	-0.0000431105652512
Mg	-19.7183862170070690	43.8802985251518152	27.5989492754636423	0.0000422899562954	0.0000978051401102	0.0000424994019572
Mg	-23.1491686844792355	41.9608443072958437	17.9281215633004791	-0.0000472232126678	-0.0000141580069956	0.0000790366297544
Mg	-20.5014944580638954	41.3401108154356862	26.2396445707908406	-0.0000305389548670	0.0001006176303473	0.0000338755663458
Mg	-24.0947916908259820	39.8574984179238427	15.9236666843531882	0.0000200743995403	-0.0000830286530680	0.0000417006547976
Mg	-17.5736193210206544	43.3864856889774373	29.8234783958970731	-0.0000641057985500	-0.0001583408597330	0.0000266047986719
Mg	-21.9070571048173548	41.0275065135475714	20.5911172673459859	-0.0000303114310004	-0.0000195151710284	-0.0000344241973234
Mg	-22.8647175857792675	38.9168443747490684	18.5578779204591200	0.0000095707714848	-0.0000237925505479	-0.0000116976095415
Mg	-20.7004670208107093	41.6733952932371281	23.1685559265296561	0.0000113883505010	0.0000479176083861	-0.0000791965915189
Mg	-17.7026323163026120	41.6354183384402674	27.2346314153768958	0.0000698654559753	-0.0000448541622942	-0.0000268327596902
Mg	-18.6462691519463029	43.2252939665716269	24.8908107024086682	0.0000022883065271	0.0000702413872042	-0.0000284553282018
11
REF_energy=-244.2709579936611419 charge=2 Properties=species:S:1:pos:R:3:REF_forces:R:3
Mg	5.3348093485635184	-4.8585151183421109	-5.1392616368503647	-0.0000261318642368	-0.0000033427748917	0.0000352898569598
Mg	3.4238927299546829	-3.6159959222805957	-0.6223213085741442	0.0000423166076304	0.0000154667497995	-0.0000005962585848
Mg	0.6212273188570672	-0.0294052481516479	0.7367657201164725	0.0000053173826492	0.0000268990753597	-0.0000186860574653
Mg	1.9545654801884984	-1.1772062092359525	-1.5990193598800833	0.0000304895754284	0.0000102517686577	-0.0000040056843607
Mg	3.4304183108711150	-5.5140404189702767	-2.9114452216133233	0.0000171948921240	-0.0000029068739343	0.0000264323611508
Mg	3.4361784971698199	-2.5312530027241591	-3.9289748985758499	0.0000233127469762	-0.0000014296076277	-0.0000250034946783
Mg	5.8293273731446176	-3.8463001632809330	-2.3553890202569723	0.0000091968996628	-0.0000360271553813	0.0000189154785641
Mg	6.0414705161480837	-6.8267150795197145	-2.2858033654823209	0.0000489204876980	-0.0000340629930439	-0.0000579840937846
Mg	0.7858310746959557	-2.9927435076253976	0.7997460229578697	-0.0000060479420848	0.0000122783456735	-0.0000353119453965
Mg	4.2240618252108266	-2.6767015871988336	-6.8861865937074382	-0.0000668438236339	0.0000197789432921	0.0000372348832136
Mg	3.2362057922624374	-1.2901656279147931	1.3595410283503535	-0.0000777249622132	-0.0000069054779038	0.0000237149543820
11
REF_energy=-251.7938862187253619 charge=1 Properties=species:S:1:pos:R:3:REF_forces:R:3
Mg	-18.8037104333128156	40.7120519224652142	20.6112839947630420	-0.0000365277575054	0.0000252135513536	-0.0000101352747245
Mg	-17.4741608614389818	39.0296191916293722	18.4821228726238935	0.0000315709366569	-0.0000225591471260	0.0000356891755893
Mg	-21.4545231885128800	41.3938246280133626	22.3639168738944996	0.0000203528177271	0.0000031191125236	-0.0000082816114919
Mg	-20.0941864116411253	38.1556839520024837	19.6110782605684726	-0.0000062224524587	0.0000067094521366	-0.0000825728420261
Mg	-19.5646232473579218	40.8675509314722305	17.7719564202764211	-0.0000154494356512	-0.0000432757379521	-0.0000461489600830
Mg	-14.8109362091268988	37.6940473721139639	18.0820545915364725	0.0000040869009624	0.0000285230822941	0.0000178449662802
Mg	-22.7410400957180485	38.5893157944941336	21.4932892595541851	-0.0000543907404296	0.0000310461236919	0.0000602687001312
Mg	-21.8901621974717955	40.6985500155253277	19.5286446572406405	0.0000595852494997	0.0000417198988886	0.0000060545563415
Mg	-23.0880546936382771	39.6267327115194163	24.3206577512048767	0.0000203438272931	-0.0000277694071350	0.0000079507179322
Mg	-20.4887468747432280	43.1970403773740799	20.0512049829193693	-0.0000151051534938	-0.0000267238063067	0.0000112039010548
Mg	-20.1003908924359216	38.6890611396728801	22.6469221978384070	-0.0000082441926007	-0.0000160031223687	0.0000081266709963
11
REF_energy=-244.1764901282251117 charge=2 Properties=species:S:1:pos:R:3:REF_forces:R:3
Mg	1.4913059771158332	24.1755788490588230	-10.3847512654396823	0.0000607767793917	0.0000190816179841	-0.0000210485631406
Mg	-0.8339692536177457	23.3471920131680513	-12.2268244503908718	-0.0000070018809840	-0.0000515435333026	-0.0000930814866081
Mg	3.2510624155321648	20.1389615321218329	-10.0932611163105044	-0.0000329678472251	-0.0000710643719953	0.0002447698228989
Mg	2.0983228572244372	21.5499829620806480	-12.4697268873653400	-0.0001476555310091	0.0000478577866311	-0.0001091456524660
Mg	-2.9928677687514771	22.0802743628674598	-10.5867513763557266	-0.0000119830069007	-0.0001487118854934	0.0001123717477850
Mg	-1.4080693786067457	24.2988387953256932	-9.4520689565051050	0.0001048944621737	-0.0000152644510122	0.0001242340583601
Mg	5.2306354751994801	20.7996422455687338	-12.3209779422388248	0.0000715928209370	-0.0000739025370936	-0.0000617861775699
Mg	4.0527789772053824	23.0279722485477265	-10.6981764480785788	0.0000522019388024	0.0002682934152032	0.0000228517333323
Mg	-0.0028097001445798	21.5557506269318040	-9.9959367198587312	0.0000648503912446	0.0000041659794389	-0.0000515192315973
Mg	3.3542684164108225	18.5606213539364191	-12.6889288770243542	-0.0001148018963047	-0.0000134082144514	-0.0000321709139196
Mg	-5.7856781955280034	21.0208662390317755	-10.4112769525584721	-0.0000399062301258	0.0000344961940912	-0.0001354753370749
11
REF_energy=-243.7040746489469996 charge=2 Properties=species:S:1:pos:R:3:REF_forces:R:3
Mg	-15.5465384489816465	8.0269575167541642	16.6730201882987252	0.0000386676087765	-0.0000162763254716	-0.0000764003411745
Mg	-16.8549985658703534	13.3304706023918538	14.4696643946166610	-0.0001757193034555	-0.0000208389829825	-0.0001623286632237
Mg	-12.7347966890608948	7.7068975135600368	17.6582816225812422	0.0000170619901571	0.0000366363562778	-0.0000851803205276
Mg	-14.4064630804262244	10.0330970165132776	18.5425664518348867	-0.0000593761246179	-0.0000082012918700	0.0000655664306600
Mg	-10.5992532417219607	5.7389565602719674	18.4547673781983725	0.0000373820733346	0.0000416146421275	-0.0000106472203251
Mg	-19.6793497283048850	14.4931224125016200	14.5364829975024445	0.0002521212450520	-0.0003079517051638	0.0001268839831755
Mg	-16.2130150974252203	10.9695672935941833	16.2752492122797072	0.0000506583724748	-0.0001399023059957	0.0001421280096808
Mg	-19.0023325316949290	12.1410529692985403	16.3321394202375068	-0.0001371371148665	0.0001253379562027	0.0000790086907801
Mg	-21.6278658908116341	16.4907025303670451	13.5397943008125861	-0.0002211389897762	0.0002148611739344	-0.0001347509017166
Mg	-13.4239679328444392	9.9057970737516499	15.7306208107408683	-0.0000000704672516	0.0000910682479078	0.0000244188817141
Mg	-23.6535845062996657	18.5432828215921575	12.5216650775846627	0.0001975507101727	-0.0000163477649667	0.0000313014509571
11
REF_energy=-259.1783283579700878 charge=-1 Properties=species:S:1:pos:R:3:REF_forces:R:3
Mg	4.1003393865119788	22.4497883144249286	-14.5007605285402104	-0.0000454831232404	0.0000338313963919	0.0000493108084311
Mg	1.0328654969145274	22.3849839220774065	-13.7092019857731930	0.0001404295589686	-0.0000793025524122	0.0000366846262208
Mg	0.5018449990629169	22.5393778519267265	-10.6215831124417619	0.0000825426533976	0.0000293373928303	0.0000951049914681
Mg	2.5579154042392518	24.1803093463567862	-11.7768173689453111	0.0001635124105377	-0.0000993427409284	0.0001192679495741
Mg	1.6172121102197661	19.7623544377292788	-9.6364092688262151	-0.0001101561923824	-0.0001478835204935	-0.0000062756701042
Mg	2.5445623792985375	19.9368109838931495	-14.4439675470457090	0.0001157910359963	0.0000120625841629	0.0001528175782947
Mg	3.0652565642528038	21.1739317474264297	-11.7953163657014404	0.0000078448760999	-0.0001423368146538	0.0000233638359608
Mg	4.7836322665849975	25.2073502700831646	-13.5121766459867789	-0.0002658137819312	0.0001859666473546	-0.0002622283593943
Mg	-1.3114105175863755	20.2784938189130735	-10.1325314835401663	-0.0000506838305509	0.0001330782264162	0.0000089908398440
Mg	0.4272915128045489	19.5650149685137578	-12.4373636736838300	-0.0000496465656208	0.0000125352107715	-0.0001610717416962
Mg	-1.6877811159580984	21.7452542419646662	-12.7390180012938217	0.0000116629587255	0.0000620541705606	-0.0000559648585987
11
REF_energy=-244.1663550175100568 charge=2 Properties=species:S:1:pos:R:3:REF_forces:R:3
Mg	2.3649369421486908	19.6491384758627206	-10.9954392057478501	-0.0000262003180759	0.0000420421309161	-0.0000402403335115
Mg	-2.5594744192603653	24.7265523330868291	-5.5911318967122856	-0.0000883397261944	0.0000021303141376	0.0000955420210584
Mg	-0.6629397020394389	24.2695601835245576	-10.8736163044210823	-0.0001031025797424	0.0000612287450896	0.0000484354743393
Mg	3.4690470562102385	22.3075835086833152	-11.6521585762452347	0.0000373793637047	-0.0000784527029052	-0.0000262877311934
Mg	4.9409564046373715	19.8066956571252000	-12.6514565731811466	-0.0000088297497393	-0.0000336444348588	0.0000393769561409
Mg	0.5245963340633352	21.7780171360736219	-12.1160575062605371	0.0001492649244988	-0.0000562731051878	-0.0002261354683431
Mg	2.6300985011489453	19.7144234254835702	-16.9195049218488336	0.0000193244811173	-0.0000189615765436	0.0000167835042096
Mg	-1.5030222633983614	23.6336303594151502	-8.1483861993778852	0.0000824569000252	-0.0000648084865787	-0.0001684625866634
Mg	0.9947664287388367	22.2851725015371294	-9.2582114989905406	0.0000428099872084	0.0000885184357587	0.0001537239788120
Mg	-1.8198321694690220	21.5938501819250774	-10.2125715070855492	0.0000223081538757	-0.0000008697362583	0.0000934295229539
Mg	2.4598814344757285	20.5059140399622919	-14.0035821306496189	-0.0001270714366780	0.0000590904164306	0.0000138346621973
11
REF_energy=-243.6661069287381451 charge=2 Properties=species:S:1:pos:R:3:REF_forces:R:3
Mg	-10.5021480930243598	9.7406771386365403	16.0260136210196933	-0.0003897536494716	0.0002461685745404	0.0001883896563097
Mg	-8.6449568539794210	9.1660871864041340	13.7515873939596140	0.0001625425252453	0.0000032176029261	-0.0002506760334836
Mg	-12.3158237152691648	10.3000534820492220	18.2486457563987727	0.0001641905792185	-0.0000498446755045	-0.0002963060364148
Mg	-17.2365045037357376	11.7927740928200464	24.3176128386982739	-0.0000070464644686	-0.0000231401553047	0.0000457689191129
Mg	-13.4917104994087751	9.2688853909727946	20.8500185708101426	0.0000339696263591	-0.0001097051723854	0.0000687204954639
Mg	-19.0805658691031752	12.3385796246966795	26.6100224129074192	-0.0000747209481395	-0.0000336328182830	0.0000528596693242
Mg	-12.9586783335430145	12.1485326061178114	20.5691127553352047	0.0000608559693465	-0.0000495676144706	0.0001963029449055
Mg	-6.7400237317164446	8.5765045213565294	11.4170371851991366	-0.0000572475823631	0.0000521772608175	0.0000433174109721
Mg	-15.4317256377419429	11.2508443615669851	22.0834901282170613	-0.0000706104129955	-0.0000466593312724	0.0002005600998741
Mg	-20.9706504385390105	12.8896940948912881	28.9661167679626388	0.0000861257378801	0.0001908325530349	-0.0003203278874210
Mg	-15.1716384380118328	10.9100949336031050	19.0781639167126613	0.0000916946193888	-0.0001798462240982	0.0000713907613570
11
REF_energy=-254.9681556856511975 charge=0 Properties=species:S:1:pos:R:3:REF_forces:R:3
Mg	6.5773310018908315	11.8752589981435221	1.6323370107436155	-0.0002808752860733	0.0000096553726666	-0.0000903676485916
Mg	2.3550417660774348	12.8321882648798624	-1.9226382319644426	-0.0002291740861536	0.0000820217575723	-0.0001367701060455
Mg	0.1195210077888239	12.2016627074905948	-3.8528022594158258	0.0002019002677863	0.0001262611619596	-0.0000253583457709
Mg	4.6825199729266975	13.6339379305952324	3.0714946251031590	0.0001585965792695	0.0000068441153829	-0.0001096329071603
Mg	-1.3733474595437269	9.8018164158214169	-4.7706769000210416	0.0000957783501787	0.0000770308566910	0.0000768162999262
Mg	-2.8512205402867621	12.1870167798262301	-3.8320653636683257	-0.0000629168294296	-0.0001491918365919	-0.0001204093951255
Mg	-1.3857881450868519	12.2744923067299112	-6.4109305259386833	0.0000164065904844	-0.0000375988978160	0.0001869051650567
Mg	6.7943586551730233	14.8219708410318365	1.3587246634226571	-0.0000664788674093	-0.0000140671490066	-0.0000114397290445
Mg	4.5145886452896011	13.3822979084371170	0.1153437958802290	0.0003236958566520	0.0001137135386287	0.0002161859538843
Mg	9.0334982431862656	16.9895356295671043	1.6442883669650057	-0.0000254990395825	-0.0001453139903750	0.0000989202862695
Mg	-2.0034076071539579	13.0609055482287246	-9.3760972784185395	-0.0001314335357227	-0.0000693549291116	-0.0000848495733985
11
REF_energy=-243.6706037783478962 charge=2 Properties=species:S:1:pos:R:3:REF_forces:R:3
Mg	5.6232780470426817	-3.5165430658742101	1.1176810488573212	0.0000650316717916	-0.0000997563288666	-0.0000285968929050
Mg	5.3955188454531120	-4.7327498604686289	4.1072939490640472	0.0000138921168761	-0.0000535725004081	0.0000378155862357
Mg	7.9197820560918872	-3.3966427395901415	3.1179608010439233	-0.0000128549304988	0.0000922079116833	0.0000124563302621
Mg	5.1444664026267555	-4.2522814586623499	7.0813084401456319	0.0000450558890419	-0.0000244046494033	-0.0000146549845548
Mg	7.6335538425203540	-2.9412238818263461	6.1001629449272263	-0.0000752825352553	0.0000436117455906	0.0000093966404529
Mg	9.8085027264311595	-3.4405428936369957	-2.4893420197549143	-0.0000355117195541	0.0000510302551234	0.0000041727052262
Mg	8.5617770644294318	-3.6199153946334097	0.2343321662270230	-0.0000194093124958	0.0000073669288461	-0.0000109815832281
Mg	6.6159514448428780	-5.1827156565488242	-1.4962186782182587	0.0000221984181308	-0.0000185900484644	0.0000102563611589
Mg	12.2275650487272269	-2.1908312362713103	-3.8890950372862219	0.0000610388630291	-0.0001124956061934	0.0000038437935390
Mg	7.9160532664043473	-5.0096115434380799	-4.2093215066643914	-0.0000619478620439	0.0000977815311686	-0.0000144158344034
Mg	7.1006341590092026	-5.9293445436754908	1.6338743735894792	-0.0000022105990216	0.0000168207609238	-0.0000092921217835
11
REF_energy=-259.4706320576287908 charge=-1 Properties=species:S:1:pos:R:3:REF_forces:R:3
Mg	-2.1841277485548285	19.0530839470818520	-12.8737400555647739	-0.0000244140938360	-0.0000021752628949	-0.0000848289943423
Mg	1.9103875229256138	21.5303669815303778	-10.8087093736647084	-0.0000572574841815	0.0000558875318428	-0.0000157916495916
Mg	2.1410466912914297	23.2715230826712300	-13.1607389801498673	-0.0000593207032616	-0.0000145277192808	0.0000002669145801
Mg	2.9309632215919450	20.2517826213999008	-13.8786538586056540	-0.0000611963484427	0.0000056982572507	-0.0000496325662288
Mg	0.8104800989369352	18.9416484897652424	-11.7349728101794604	-0.0000231258196651	0.0000627137656211	-0.0000006895063173
Mg	1.2470582769070706	21.8317053702424815	-15.5887837041815320	0.0000186104899268	-0.0000124954432909	0.0000246738654266
Mg	3.8058077106176107	19.2890208422361162	-11.3310915282139497	-0.0000071076940843	-0.0000218394126201	0.0000271147650692
Mg	-0.2475685332911897	21.5369326660848301	-12.7967343451109095	0.0000826694626815	-0.0000343888639282	0.0000771159400808
Mg	0.2465431657442336	19.1770884726372088	-14.6634536093668988	0.0000405076327078	-0.0000743894481728	0.0000015796526247
Mg	4.8133264539609835	21.9870475379696160	-12.2573590090891393	0.0000285353202586	0.0000301077392256	-0.0000392816998208
Mg	0.0797760447643481	23.9406180625225673	-10.9950126780561597	0.0000620992378964	0.0000054088562476	0.0000594732785194
11
REF_energy=-250.3083635130521998 charge=1 Properties=species:S:1:pos:R:3:REF_forces:R:3
Mg	-16.7565142880418207	40.7409741478728833	-2.7483996253207663	-0.0000923623310548	-0.0001685746688305	-0.0000153453748992
Mg	-18.5124813445410403	40.6566111873798448	-0.0624188749068236	-0.0000006794584480	-0.0000942925131890	0.0000636729861333
Mg	-18.7134534198308415	38.5611267690331090	-2.4795209723839005	0.0001336581531630	0.0000034172993000	0.0000229242031329
Mg	-20.4369973039608510	38.3905087779862768	0.0542347449504853	-0.0001605606181703	-0.0000766924212080	0.0001033424750529
Mg	-17.5834557922270918	43.2668779983087859	-1.4052672089173885	-0.0001086450389115	-0.0000322762623644	0.0001453289008790
Mg	-22.5469819520340451	36.4240289236116155	0.8814673518053723	0.0001325362207140	0.0000984694061057	-0.0001038655436514
Mg	-17.6278172200188621	42.9860113284354739	1.5767017131292649	0.0000353593056334	-0.0000392522700896	-0.0000245901685082
Mg	-17.8778934006955126	44.5893412616778946	4.0644588161881297	-0.0000199895164014	0.0001718943399711	0.0000798866230217
Mg	-24.7473926329175029	34.3651918563257013	1.7443725760221687	-0.0000074314512417	-0.0000418867159278	-0.0001700496295144
Mg	-18.0838400878522414	46.3245465524202373	6.6460497964772500	0.0001644682402101	0.0000571910518313	-0.0000532370798092
Mg	-15.5936657559224212	41.6302870553784814	-0.1546300351114944	-0.0000763535054927	0.0001220027544012	-0.0000480673918374
11
REF_energy=-251.8049446525809287 charge=1 Properties=species:S:1:pos:R:3:REF_forces:R:3
Mg	1.6089608510942905	24.9447222604859071	-11.0275550069333885	-0.0000028725894197	-0.0000048656343174	-0.0000595974368947
Mg	-1.2126894878406589	23.5541263914212564	-11.7936899529128425	0.0000068956174345	-0.0000066805991070	-0.0000116106052479
Mg	0.8874404356198849	24.0647554110977673	-13.8565695502505282	-0.0000207413230635	-0.0000056553671911	0.0000256862382913
Mg	1.2231121231562794	20.0509599036909307	-9.1796568966335776	0.0000468144144637	-0.0000091159058349	-0.0000030780618444
Mg	-1.3637310153898621	20.7059392685043875	-10.5403524347503943	-0.0000068563219672	0.0000130518363364	0.0000089149942747
Mg	3.2024489181960103	22.9322938321956045	-9.2634609728523785	0.0000516613592281	-0.0000529015370954	-0.0000256307926627
Mg	3.6921164283794909	20.4019429515224608	-7.6634545901008702	-0.0000871003355313	0.0000587096034818	0.0000729990354266
Mg	-1.4552378042928229	29.0236566026212728	-13.4724621106251536	-0.0000281102671161	-0.0000034704985219	0.0000358068804113
Mg	1.3493574522838478	21.9492186084999581	-11.5338339629065167	-0.0000044066560870	-0.0000006949182318	-0.0000290813067037
Mg	0.1870061166465030	22.8388257889264601	-9.0063165577209965	0.0000268785597875	-0.0000578744861871	0.0000025185191853
Mg	-0.5885564683232825	26.2769615070458897	-12.6187012827214424	0.0000178375422710	0.0000694975066685	-0.0000169274642358
11
REF_energy=-251.0253256271248006 charge=1 Properties=species:S:1:pos:R:3:REF_forces:R:3
Mg	-24.0079270576812398	38.4901487310023214	26.0042092937484810	0.0002449519394913	0.0000051528466662	0.0001093450659600
Mg	-24.5261012874413424	41.3728847341329740	25.5940211492367062	-0.0000564981555801	-0.0000531175651633	-0.0000332581014589
Mg	-22.4370851117427108	39.8478005664881607	23.8040028537228316	-0.0001842898361681	0.0000235571990157	-0.0001817319501272
Mg	-21.9901655547172794	40.5241672312638244	26.8165318336991696	0.0000220904590405	-0.0000350701030117	0.0000066137288335
Mg	-22.6041357921897834	39.9970201562663803	20.8453591418260089	-0.0000422287326367	-0.0001123296031113	-0.0001608965431036
Mg	-23.6674002279005578	42.3247948075177831	22.3568814717794773	0.0000495437381876	0.0000126842388174	-0.0000639066050590
Mg	-25.2857832628875805	36.0289479865610289	27.2223335362735064	0.0000290820418846	-0.0000004945695409	0.0001515857267436
Mg	-21.9162821952277369	42.7578273745271957	24.8049075811879298	-0.0001800961285738	0.0000883336976863	-0.0000815056962623
Mg	-23.1335437347683914	38.8731446328765458	18.0870986321801723	0.0000806983853985	0.0002580818068672	0.0000371188776376
Mg	-20.7455951715222255	41.9571576393418866	22.1702785600427319	0.0000264993713852	0.0000290914108235	0.0001883823546192
Mg	-18.1886498355383956	43.2933442685950851	21.1308684966517681	0.0000102469175710	-0.0002158893590492	0.0000282531422172
11
REF_energy=-243.4458022274670839 charge=2 Properties=species:S:1:pos:R:3:REF_forces:R:3
Mg	-1.9772037678013783	22.6953095931079964	-3.3659365345460546	-0.0000224319059673	-0.0000246300527855	-0.0000141072846741
Mg	2.4351127077101982	21.5666680555057688	-10.5400110808066447	-0.0000300784035092	-0.0000514721320097	-0.0000257160669505
Mg	-0.2488335440989878	22.5531289563453790	-8.9344874215503136	-0.0000001505221344	-0.0000291520148479	-0.0000360581754770
Mg	0.4799758094848083	23.2090715167214583	-12.0627621389979875	-0.0000483681740017	-0.0000322967460490	0.0000031330622955
Mg	-0.2382275108586981	20.4691536175628634	-11.1927067202956181	0.0000545571316001	0.0000860400921874	0.0000563063217239
Mg	-1.4741350165564027	23.5693674643170255	-6.2569325074729694	-0.0000082980326171	0.0000042080521474	0.0000344117704685
Mg	2.0081007999655154	24.4245762966922015	-9.8115023477717340	0.0000027012451254	0.0000646728657356	0.0000474074496303
Mg	-4.1681989234928496	24.3747316615672958	-5.0524578010301910	0.0000002851581958	0.0000096444187429	0.0000228742468918
Mg	-4.5314039765921637	23.8322612004952354	-2.0244169006555772	0.0000111849796087	0.0000212359746215	-0.0000194119813412
Mg	0.7638567412062950	25.2433301896658726	-7.3344492023517853	0.0000338142332061	0.0000005949921849	-0.0000281991403814
Mg	-1.4344379650445751	17.9684262239243502	-12.3567626735453349	0.0000067842904935	-0.0000488454499276	-0.0000406402021858
11
REF_energy=-244.1971386952166370 charge=2 Properties=species:S:1:pos:R:3:REF_forces:R:3
Mg	-16.0732188387218571	10.8766687523455410	18.6720222537036875	-0.0000219760398053	0.0000389108026511	0.0000462353394446
Mg	-13.6802396902503567	9.6054308270150326	19.9411629247885784	-0.0001851861584074	-0.0000848504976465	-0.0000890778572221
Mg	-13.1796139510320476	8.8543058256991092	22.7793475299331654	0.0001138065151309	-0.0000343965935494	0.0000301799037463
Mg	-18.0121453334006425	12.5535905841385542	20.3123011759564349	-0.0000256777926701	-0.0001050257953237	0.0000211597764793
Mg	-16.0681433568774601	10.0851201862853568	15.8292005204758635	0.0000856903782623	0.0001560521418656	-0.0001177542128152
Mg	-15.5421511046058569	11.1667768783922607	21.7971382524775485	0.0000211534240532	0.0000690386383053	0.0000066340950148
Mg	-13.3903652719456350	10.3934720384568102	17.0577248230961374	-0.0000355160655066	-0.0000728801195350	0.0000408933997177
Mg	-11.0694026408827622	6.8285030043943991	22.7604256391154642	-0.0000248466739870	0.0002481260155306	-0.0001168506044115
Mg	-10.8215609992875397	8.9223331791925418	20.7457162374451265	-0.0000236509322452	-0.0002074106419866	-0.0000010743075537
Mg	-15.1074457716222508	8.0302564784865229	17.8448703617918021	0.0000996210167549	0.0000349943770434	0.0000413587245272
Mg	-12.9233375130910240	6.7362127902856264	20.4593664165881961	-0.0000034176715797	-0.0000425583273548	0.0001382957430726
11
REF_energy=-243.5423831552135141 charge=2 Properties=species:S:1:pos:R:3:REF_forces:R:3
Mg	1.0882909729849308	-3.5195305368844414	-0.9233203171863584	-0.0001052320317702	-0.0002472945831185	0.0001535764457105
Mg	5.8232570367762078	0.9871596800787161	-4.9100953183114786	0.0003534273439982	0.0001378606722915	-0.0000904752875347
Mg	2.9929139149542587	1.0556515792600012	-3.9514693897790565	-0.0002534155859217	-0.0002433041700279	-0.0000077730983414
Mg	5.1414481980125215	-0.7326718674202202	-2.6503122246385100	-0.0001729105900778	0.0000990473500699	0.0000381732069771
Mg	-2.6891982656089706	-5.0870502879997090	2.8461871456532042	0.0002367404579200	0.0000048551243409	0.0002529235488354
Mg	2.2772070482393514	-1.7599889700100699	-2.9156729051606258	0.0002544127038974	0.0001619987216201	-0.0001590087209413
Mg	-0.4943302258553224	-5.2672401920693170	0.7795843166184969	0.0000128392470818	-0.0000218426489795	-0.0000323416292256
Mg	7.7094266328929715	2.7340494447873955	-6.4293043579772959	-0.0000871156016791	0.0000300988444161	0.0000899691501491
Mg	-0.9613325974661013	-8.2028010282435382	1.3061044747184960	-0.0002555268141026	0.0001020879262419	-0.0002476840610987
Mg	3.9727570778882990	-1.2966620064953189	-5.4496596572207308	0.0000498290812870	-0.0002016920484490	-0.0000182622711307
Mg	4.0628945200488529	-2.6017079059097372	-0.3884225729283690	-0.0000330482106329	0.0001781848115944	0.0000209027166002
11
REF_energy=-245.4911988097654501 charge=2 Properties=species:S:1:pos:R:3:REF_forces:R:3
Mg	3.0636534279444443	24.1239314174151858	-11.5924114322367036	-0.0000323194431874	-0.0000183994128615	-0.0000229478930743
Mg	0.2495886913462891	23.6864004016794922	-12.5964074563707342	0.0000669671262902	0.0000104443418914	0.0000112578197214
Mg	1.2876861365247574	20.0510045136404358	-9.4633841155304594	-0.0000439213463029	-0.0000160305146833	0.0000236159397582
Mg	2.2377362848527262	21.3235318251150332	-12.1494283997128960	0.0000607990631803	0.0000870817492794	-0.0000059861215261
Mg	-0.9850374514091924	21.1245392462561554	-11.3123186534750477	-0.0000676852177264	0.0000295974274951	0.0000657379711776
Mg	-1.7536681290875982	23.8265162772416481	-10.3412821919071085	-0.0000041388680548	-0.0000149442149570	0.0000095709212329
Mg	3.7163989995815130	21.8382196978249468	-9.6229918909191667	0.0000284630033836	-0.0000024325026383	0.0000065683806215
Mg	1.0531871551400855	23.1580386470894837	-9.6278952576611978	-0.0000037019743801	0.0000313293611691	-0.0000134504398154
Mg	0.6697084670431243	18.7985603859170496	-12.1406198897783337	0.0000208515744841	-0.0001108696059931	0.0000200148852763
Mg	0.0169060716263075	21.0839945849205002	-14.1102943724043275	-0.0000323816919896	0.0000256342194838	-0.0000649855658831
Mg	-1.1011798315228505	21.5409442315377753	-8.3716473321305180	0.0000070677743030	-0.0000214108481856	-0.0000293958974888
11