11
REF_energy=-244.0586347785251462 charge=2 Properties=species:S:1:pos:R:3:REF_forces:R:3
Mg	-1.0892456522720795	21.9502640415167782	-12.0796440873779662	-0.0000070718725614	0.0001271515605751	0.0000211855691236
Mg	-1.7503011729418538	26.2411721798871618	-9.6366915949606913	-0.0001003457353029	-0.0001045600646034	0.0000041159097948
Mg	1.0514243954195901	19.9570398876989792	-12.3982150180908537	0.0000991726994887	-0.0001415848432238	-0.0000584831424456
Mg	0.0488711944284264	24.2520144057379561	-10.7240950744098686	0.0000318569050790	-0.0000198159079586	-0.0000617069527979
Mg	1.8226676436505298	22.8139568756309856	-12.7540174135622237	0.0000867250827730	0.0000498409910940	0.0000116653412532
Mg	4.5502259907477693	24.1573179151585471	-12.4538613762206385	-0.0000076387767682	0.0000038183465957	0.0000225871348320
Mg	0.6477541860939416	23.9901186595269280	-7.8342601855286391	-0.0000617076959489	0.0000306180269454	0.0000621037119312
Mg	2.9910504532220616	24.3298182014529765	-9.8327594941974805	0.0000513249340816	0.0000251702186141	-0.0000660516598823
Mg	1.4845191919015177	17.2041249128190437	-13.4798306005027726	-0.0001261063600234	0.0000395760093890	0.0000411603135544
Mg	1.0199829933985172	21.5936457750510975	-9.8289722853278949	-0.0000249834855647	0.0000005334998126	0.0000308496672244
Mg	3.1039637639462461	22.2419192704327280	-7.7083303005810251	0.0000587743047472	-0.0000107478372403	-0.0000074258925877
11
REF_energy=-244.1863100608140940 charge=2 Properties=species:S:1:pos:R:3:REF_forces:R:3
Mg	-2.1746060907122362	24.6083918233139514	-6.9711930112145719	-0.0000311134180202	0.0000430806745485	0.0000293000297556
Mg	-2.6795007538751126	24.8355369431952262	-9.9229374423560088	0.0001472198317317	0.0000011251445908	-0.0000617131943910
Mg	-0.6350483398205840	23.1658796443167034	-11.4638194483350553	-0.0001109223724707	-0.0000323286581778	0.0001225111051373
Mg	4.2721480350831289	22.5978907567125304	-12.8180168081473109	0.0000408265809839	0.0000025155459548	-0.0000622272880366
Mg	-1.7050156020844069	22.2380253761612714	-8.7550160129154477	-0.0000592188661214	-0.0000196470593221	-0.0000871017167477
Mg	2.5397983496614414	24.4914901332906574	-11.1264508265494371	0.0000201508962276	0.0000037299123564	0.0000841736803138
Mg	3.2983991097254544	25.2438272431642261	-14.0089669054873038	-0.0000654610267143	0.0000220822461394	0.0000296728393911
Mg	5.5989966248470164	25.1784175668441819	-12.1035996910828381	-0.0000339315446425	0.0000384253895266	-0.0000317131839448
Mg	-3.3135290486849232	25.3773735210649320	-4.3097363350204496	0.0000019600863171	0.0000434040811533	-0.0000064886393983
Mg	0.1449452207842405	24.6141860080260102	-8.8922807729575446	0.0000324358656085	-0.0000944378842513	-0.0000064320910702
Mg	1.3676130473342110	23.0066474627640893	-13.4687435268358051	0.0000580539671003	-0.0000079493925185	-0.0000099815410092
11
REF_energy=-243.5661520639152968 charge=2 Properties=species:S:1:pos:R:3:REF_forces:R:3
Mg	-0.0004189373183516	19.1736856645498008	-10.4787146602354113	0.0000003810749843	0.0000295918048695	-0.0001016118911618
Mg	1.5769205526430328	23.1624767989696423	-13.1936958726141942	0.0000104277849615	0.0000091099177953	-0.0000611582050629
Mg	-3.2298627734068961	21.2911808695064266	-13.2860628284949911	0.0000143516096240	-0.0000376462059920	-0.0000028129117201
Mg	2.6725295893688501	19.1579041804427632	-8.9489117764175532	0.0000572984282662	0.0000248735178678	-0.0000136057480447
Mg	-5.9249464276376518	20.9298646795855205	-14.6716564110376577	-0.0000375389489930	-0.0001264793760853	0.0001178896057409
Mg	4.3459481979296637	17.3234609856181869	-7.1714614918882589	-0.0001310659777252	0.0000310064248418	-0.0000090874453917
Mg	1.9870077916996125	21.6826969262719018	-10.4794717190554856	-0.0000608347295016	-0.0000619932361292	0.0000014953539683
Mg	0.2244310124259759	24.2321226812908748	-10.8237160424080852	-0.0000543541194311	0.0000546958220239	0.0000261469944023
Mg	-0.6807813137764838	21.6393532062686695	-11.9824050178271531	0.0000236756002522	0.0000786730647942	-0.0000578542764831
Mg	5.4892101565398876	26.2731403210313488	-10.5529689467304753	-0.0000061644571738	-0.0000535251147300	0.0000524940819887
Mg	3.1877341587249752	24.3872666487389971	-11.0149755773204703	0.0001838237347365	0.0000516933807440	0.0000481044417640
11
REF_energy=-256.9358591861961827 charge=0 Properties=species:S:1:pos:R:3:REF_forces:R:3
Mg	-1.1428916109132945	22.2383166495454958	-9.5187251124889460	-0.0000039698275325	-0.0000112257242804	-0.0000437953659997
Mg	0.1885068116905977	22.4328258591049128	-12.1449942592736875	0.0000284499661069	0.0000112735543993	-0.0000213873650248
Mg	1.1150073695568485	19.6388427462624975	-13.3594908271193891	0.0000326591234004	0.0000368637671531	-0.0000223864644575
Mg	1.7677016927467564	16.7696156695345095	-14.2468744610112878	0.0000211854183314	0.0000067159493784	0.0000451347132673
Mg	-1.0035114904523752	25.1222183907750392	-10.7349186144840338	-0.0000284974350075	-0.0000034709602041	0.0000068863782711
Mg	-0.8314121695695352	24.8091062760845418	-7.8631456490806535	0.0000311619067844	-0.0000242554983463	0.0000487601757030
Mg	-1.1680338521678544	19.7391067499401451	-11.4924464258024805	0.0000292991771144	0.0000004379273661	-0.0000041050608776
Mg	-1.0157704766499096	17.3729585014666235	-13.7335684745003128	-0.0000339879211771	-0.0000437573960531	0.0000178003198248
Mg	0.8935797889562728	17.2980582109551726	-11.4860309374695735	-0.0000626204459203	-0.0000236349011582	0.0000104819347826
Mg	1.4154792659195656	20.4947155973260351	-10.2984933246932417	-0.0000012108456504	0.0000304022428735	-0.0000603521118722
Mg	1.3868459689878947	23.8622536924620903	-9.5510138366494566	-0.0000124691164498	0.0000206510388718	0.0000229628463829
11
REF_energy=-243.5023527689993443 charge=2 Properties=species:S:1:pos:R:3:REF_forces:R:3
Mg	1.7505319069460366	-1.6338537637920416	-0.5697028529811499	-0.0000518027668004	0.0000593367521177	-0.0001381152078488
Mg	8.8262217374851186	5.3621412801329473	9.6782923667095488	-0.0003377625230904	-0.0000227380802089	0.0002101550953762
Mg	-0.7917844127866575	-1.4374482246902520	-2.2662568063339918	-0.0001586461958010	0.0001843320927969	0.0000562124342816
Mg	-1.1913279325822934	-3.9911636072714090	-3.8050278037492036	-0.0001849702779472	-0.0001210371558929	0.0000777889590226
Mg	3.4899192081087054	-0.2426749646526778	1.3265891360839250	0.0002043846206477	0.0000904403689504	-0.0002278210560983
Mg	1.5936493441074975	-2.9595889831029440	-3.3263862472176378	0.0000606884380308	-0.0000404613616232	0.0000833469687721
Mg	7.0216130242411854	2.5629855472913632	5.1141642878365143	0.0001286411557446	-0.0000846962409139	-0.0000168388464387
Mg	8.8023557890448494	3.9664964959047109	6.9956215518312810	-0.0000563012738748	-0.0000734008156655	-0.0002529023569579
Mg	-0.0219572105527685	-4.0878075624497265	-1.0353550601849180	0.0001458314984542	0.0000183417404130	0.0002335905740882
Mg	5.2483948987250448	1.1580140329712749	3.2228704363122032	0.0001680178094076	-0.0000495469860674	-0.0001525840543272
Mg	11.6792500366843566	4.8391494576587064	7.3348350571030254	0.0000819195152288	0.0000394296860939	0.0001271674901303
11
REF_energy=-244.1325859095637156 charge=2 Properties=species:S:1:pos:R:3:REF_forces:R:3
Mg	-0.2571544858354180	22.2438866323843882	-10.6274957013596989	-0.0000212979337682	-0.0000073197949079	0.0000217700118622
Mg	2.1168457180750595	22.1697726084045392	-12.7384129131246659	0.0000074576054710	-0.0000315967285911	0.0000550765536773
Mg	0.9050616106504478	24.7873441799807921	-12.1368228633902806	-0.0000294793000919	-0.0000019257720630	0.0000222602464336
Mg	2.5867130140436769	23.4254792315110549	-10.0394385977956482	0.0000285050960471	-0.0000024878562439	0.0000253113643589
Mg	2.8960265034402779	22.5116536517635808	-5.4355098634162626	0.0000168397753602	0.0000058826511543	-0.0000005955005295
Mg	1.1105605487301669	22.2239893831097035	-7.7847840783662390	0.0000170135138968	0.0000084732750489	0.0000044811090584
Mg	4.2789276121075677	22.0242154611265271	-7.9558798195994846	0.0000167871595134	0.0000020919455367	0.0000142094780103
Mg	-2.8515321187683043	22.1895940175181181	-15.6166976869139056	0.0000809354789777	0.0000700937268616	-0.0001279892694452
Mg	2.7859358373301255	24.5630003077262486	-14.5879611366240667	-0.0001230555963142	-0.0000273666350954	-0.0000401134338149
Mg	3.0306637578153692	24.7179244540409826	-7.3373489349891079	0.0000428286570211	0.0000163072866477	0.0000190506518287
Mg	-0.5195977738960919	22.8622005889967035	-13.8460584526555479	-0.0000365344561128	-0.0000321520983479	0.0000065387885603
11
REF_energy=-242.8182888978165295 charge=2 Properties=species:S:1:pos:R:3:REF_forces:R:3
Mg	-3.2593945290112227	-1.7693019895336484	-10.8178234615279987	0.0000291411481245	0.0001077967879058	0.0001076087133367
Mg	-1.0259741058693650	-3.2156412908120591	-9.3705166361569940	0.0001187779668954	0.0000265574121069	0.0000865742204464
Mg	3.9547859390961189	-3.0988598694513874	-2.0422384999313867	-0.0000681862977739	-0.0000527906177374	0.0000018293185771
Mg	2.2974662605357929	-3.1299345732719481	-4.4784932763291243	-0.0000415164461638	-0.0001260119932658	-0.0000535952950690
Mg	5.6033052000338213	-3.0729096335381079	0.3847001220823212	-0.0000573116004935	-0.0000237623749993	0.0000077559099599
Mg	6.0136306175913345	-2.2244573162114123	3.3328089162588683	-0.0000151316486414	0.0000032936192129	-0.0000463682195941
Mg	0.6341079252137957	-3.1687920991322129	-6.9245547823019864	0.0000023575484180	-0.0001339457672945	-0.0001234248008995
Mg	8.5842230579505596	-3.0339562169429914	4.7923022988306574	0.0000066616915131	0.0000902773919242	-0.0000166215063021
Mg	-1.5028613979963417	-4.7556688369028981	-11.9358103616164470	-0.0000202726683354	0.0000551261950639	-0.0000259016930224
Mg	10.2896536160978300	-3.0123114543464542	7.3247732930234832	0.0000813629513285	0.0000120672100949	0.0000355235047095
Mg	8.1948085514680056	-3.8785918904862036	1.8722525324175574	-0.0000358826448717	0.0000413921369884	0.0000266198478576
11
REF_energy=-243.9673155240804476 charge=2 Properties=species:S:1:pos:R:3:REF_forces:R:3
Mg	2.5168551338244107	24.5468018139440005	-11.5151162912976321	0.0000124746192334	-0.0000122096293026	-0.0000469366450839
Mg	2.0036998892289852	21.5683907728474367	-10.7378854694323280	0.0000033740726731	0.0000379660859059	-0.0000169832322267
Mg	-1.6831201002098664	18.0703578954363913	-13.6583814416977471	0.0000673149720672	0.0000487261600044	0.0000067388653464
Mg	3.3582555543703676	24.1435353659595222	-8.7034350182710938	0.0000287254068007	-0.0000459278615941	0.0000155898459394
Mg	0.8935006335359623	21.8550650135030118	-5.8227982267824014	-0.0000229532028533	0.0000587886515567	0.0000856158686209
Mg	-0.2907688276724374	23.2985697365526185	-11.7167160939769044	-0.0000620994209437	0.0000660813404232	0.0001137545747350
Mg	3.0323731916470433	21.2762895223850954	-7.8471663606715172	0.0000524012510709	-0.0000281008179564	-0.0000235103808254
Mg	-0.3234730392130057	20.3660566817083613	-12.2412065209325327	-0.0000940896688396	-0.0001491488126433	-0.0000625284836483
Mg	3.3260741689801367	25.0617860945117030	-14.3173825989926762	-0.0000080641929972	-0.0000041214281533	0.0000246762438809
Mg	1.7770361076534114	22.4441817438305016	-13.6489580195302249	0.0000557065627603	0.0000175965055684	-0.0000159053902140
Mg	0.5638466215238996	23.1308255202039241	-8.5993572467037538	-0.0000327903989717	0.0000103498061910	-0.0000805112665243
11
REF_energy=-243.6362337940815337 charge=2 Properties=species:S:1:pos:R:3:REF_forces:R:3
Mg	1.3705058504162075	19.3884051600027192	-10.8600125327873744	0.0001735239908355	0.0000790336259153	0.0002758175711407
Mg	1.0140177006861677	23.5713542423318323	-9.1393798091177221	-0.0000253774619745	-0.0000191571594157	-0.0000114713202549
Mg	-2.9884859999744902	19.8242344265601211	-7.9143980213233824	-0.0002098940718092	-0.0000284073838125	-0.0001048410106563
Mg	2.0418133248629089	25.1332960115129076	-11.5395613655019496	0.0000191525605405	0.0000158409473125	-0.0002002239638584
Mg	4.4179085573275056	23.7184289174779437	-12.9125381988394743	-0.0000030497955138	-0.0000182955924544	-0.0000715874516771
Mg	-0.4695586186332366	23.3937973373815922	-11.5550827809072985	-0.0001230233284878	0.0000491554469461	0.0001193017569679
Mg	-1.6028161058674133	28.6879793100382940	-9.5996486290094705	-0.0000958769656621	0.0003493434845559	0.0000553428836027
Mg	2.3281296277546333	22.0708667150498172	-11.5176241011573719	0.0000101443373143	-0.0000943488629398	-0.0000028095461650
Mg	-0.7438916101561301	21.1067806182431887	-9.5549956057319712	0.0001473705979801	0.0001217786244413	-0.0000668551796401
Mg	-2.6311289945753509	31.5373363414224350	-9.2126540985141663	0.0000638041220636	-0.0001604159346619	0.0001130404953136
Mg	-0.6728871975975684	25.9093779003342028	-9.9336282015726489	0.0000432260147136	-0.0002945271958867	-0.0001057142347732
11
REF_energy=-243.1242917624606150 charge=2 Properties=species:S:1:pos:R:3:REF_forces:R:3
Mg	5.1534379783678066	9.3591887759831511	-9.4875635412126726	-0.0000500826246383	0.0000144494782818	-0.0000400917678937
Mg	3.3917012373906590	11.4064142767491905	-8.4092048634829926	0.0000720851386885	0.0000047599410855	-0.0000187004078260
Mg	7.8500481841628620	10.5304634880638179	-14.3472067993729411	-0.0001514793763646	0.0000492449636319	-0.0000103117198268
Mg	6.4732656218849982	9.0547241946513317	-12.0358626485462246	0.0000269816039635	-0.0000046037982107	0.0000146081774049
Mg	0.4683571444084169	12.1724168998336069	-8.1583117863155348	-0.0000825612800490	0.0001083573688434	-0.0001165856672546
Mg	5.3559396940004298	7.4390143733327871	-7.2578295969135747	0.0000122539526590	-0.0001448836867533	0.0001191057588185
Mg	8.7180582039292691	8.5471319479104881	-16.4200301493310938	-0.0000370528910126	0.0000381781768802	-0.0000416923818785
Mg	3.3920754735627723	14.0165000419277650	-6.8657017625041297	0.0000834692171841	-0.0000747498402674	0.0000346732010435
Mg	6.1602634009535420	8.0801990646926480	-14.9272502732171493	0.0000414662550240	-0.0000565677594497	-0.0000150211698381
Mg	5.5744934825603289	5.4167901187245855	-4.9337448323564956	-0.0000004394567061	0.0000292370323823	0.0000233885372921
Mg	8.8330531473492986	7.7818772280733084	-13.5265213722073412	0.0000853594612515	0.0000365781235759	0.0000506274399587
11
REF_energy=-244.0895036224174532 charge=2 Properties=species:S:1:pos:R:3:REF_forces:R:3
Mg	-14.7150543513957857	11.7734918976902989	17.7095585528844062	0.0000269761784456	0.0000157904335554	-0.0000864081882686
Mg	-11.3588614312607703	8.4160818855294721	21.4304544224843383	0.0000450787509958	0.0000973360850299	-0.0000054514856141
Mg	-17.4465236324536441	10.1014068916406146	17.8385439288592558	-0.0003266612331019	0.0000100792288907	-0.0003658002161372
Mg	-19.6573235093673979	10.5177210447226646	15.8882928734919986	0.0000421539072237	-0.0000985919277349	0.0001427696586430
Mg	-14.0287095801778339	7.5281032778036021	20.5885085672690984	-0.0002028698354962	-0.0000387646064864	-0.0000440561347278
Mg	-8.9736582547165433	7.4141369531458521	22.8852234680227973	-0.0000180002746542	-0.0001154543227841	-0.0000070690997757
Mg	-14.6224635189579910	8.8796550619396672	17.3613330685335647	0.0000989316943155	0.0000538189469434	0.0000049609797017
Mg	-15.7312820821780441	9.9796304366946522	20.0938974281256044	0.0003246062801550	-0.0000720504700083	0.0003867480669698
Mg	-13.7400917609013593	9.9803674064779777	22.3748595333118949	-0.0000535607022728	0.0000784833558472	-0.0001145215124377
Mg	-12.6803857596612541	10.1479066729929119	19.4601801419840399	0.0000071424330444	0.0000157409789031	0.0001838606983400
Mg	-11.9375506509689870	10.6188431207654546	16.5816916512562464	0.0000562028013451	0.0000536122978440	-0.0000950327666936
11
REF_energy=-243.7284397873005446 charge=2 Properties=species:S:1:pos:R:3:REF_forces:R:3
Mg	2.1297048207108187	26.7047759378771907	-10.8291464104724682	0.0000515249247642	0.0000342764884025	0.0001025243899675
Mg	0.1024801138964369	27.1014256761037231	-13.2116110546555792	0.0000224878883407	-0.0000559663994196	0.0000041357378920
Mg	-2.4596263733533745	16.9596804641800780	-9.3974219830191608	0.0000652186237666	0.0000466045485063	0.0000738663353132
Mg	-0.3421054206145568	22.3156377358419817	-10.6126151315027837	0.0000966235238420	-0.0000016304733380	-0.0000596999956109
Mg	-1.3927691619003539	19.6709178524316357	-10.0188859609272658	-0.0000134762463264	-0.0000371513848448	0.0000666210563175
Mg	2.9140359439398105	31.9311069281545663	-13.3457084633929970	-0.0001316893528579	-0.0000489549045662	-0.0001176778767668
Mg	1.2753916115540986	24.1909292237265952	-12.3921295548792347	0.0000017677159093	0.0001085867639575	-0.0000633644034543
Mg	1.8530691606166889	23.9669818189885291	-9.3658502682065539	-0.0000929826778454	-0.0000166040383523	0.0000480394335081
Mg	-3.5498599610504433	14.1779274515152185	-8.7533071332880752	-0.0001172431561066	-0.0000562547083721	-0.0001505574056845
Mg	-0.6269265739701572	25.3516837144991491	-10.5805900975729088	0.0000768064211691	0.0000558920345988	0.0001493449702879
Mg	2.1732982017791467	29.1798178409623752	-12.3657586824804824	0.0000409623353443	-0.0000287979265721	-0.0000532322417698
11
REF_energy=-243.4863151579529301 charge=2 Properties=species:S:1:pos:R:3:REF_forces:R:3
Mg	-14.0397323884079661	12.5527075701934674	17.2118036278822046	-0.0000674900866146	-0.0000797050934519	0.0001062248209482
Mg	-17.4408249112217142	12.5167175066169296	16.6622276708041355	0.0000156178804876	-0.0000173691363243	-0.0001381319042513
Mg	-18.1803577145641668	10.1608514038914883	14.9163702906097075	0.0000149833111740	0.0000116521084300	0.0000188205588402
Mg	-20.3888756044933821	12.0557601992304306	16.1734917879986178	0.0000398037423183	-0.0000177739866286	-0.0002196800878075
Mg	-15.9923535216277006	15.0044340347642660	17.0316044864913536	0.0000010449267269	0.0000405499739821	0.0000470699676354
Mg	-16.9020202966734239	7.5986954800512478	16.3749578205783202	0.0000158592418353	0.0000386773248244	0.0000978019420287
Mg	-15.6368935035622787	10.1086186991111440	16.7492424990850957	-0.0000041964206000	0.0000330886722965	0.0001436196917879
Mg	-18.6086740652973752	9.9463940021876152	17.7411774069566732	-0.0000396033081475	-0.0000078926312499	-0.0000717848402674
Mg	-15.9781242982792158	18.0286504551438007	17.1650737089121890	-0.0000084556996457	0.0000032887305052	0.0002173177739213
Mg	-11.0328232662980739	12.9306134067414078	17.8701633190781344	0.0000684738129288	0.0000460376716639	-0.0002769262075014
Mg	-17.8372051766687747	4.7781691800032648	16.0067521243952093	-0.0000360374004629	-0.0000505536340474	0.0000756682846659
11
REF_energy=-244.1116172379108207 charge=2 Properties=species:S:1:pos:R:3:REF_forces:R:3
Mg	5.0946973470754582	23.4445217028566866	-13.6719961073448832	-0.0000032671037310	-0.0000713942807139	-0.0000504158111096
Mg	-0.8567866380413328	24.8314988692342808	-11.9162085382732474	-0.0000425821324027	0.0000664285786900	0.0000156686429618
Mg	2.1170950750635993	24.4492905892563677	-13.0635789761111596	-0.0000399059454502	-0.0001811982720872	0.0000161151383095
Mg	0.9210762189160634	22.6445315801860758	-10.9030570030228624	0.0000396694666237	0.0001243393906937	-0.0000250712837764
Mg	2.9210590473841611	21.5678037878569455	-13.1024971269844350	-0.0000120895426953	0.0000197784363195	0.0000740997141926
Mg	-0.0581281726505889	19.3741752650561523	-7.3162952286222573	-0.0000619925454827	-0.0000688241954700	-0.0001059148078367
Mg	1.8115909118367630	21.6146785271173094	-8.1937272685333831	-0.0000869958947829	-0.0000034391590296	0.0001863513008939
Mg	0.6401243306043223	19.7004618136884311	-10.2470377659645298	0.0000305213140426	0.0000073476958758	-0.0000756192310710
Mg	3.4969843327567047	20.4574644776644412	-10.3327862561695962	0.0000942305046345	-0.0000147448368014	0.0000694038978732
Mg	3.9732700502479283	23.3823644627264606	-10.9566059057479190	0.0000214312757342	0.0001639471075040	-0.0001591366155965
Mg	-3.2017850825514240	26.7137883389125292	-12.3979968379456640	0.0000609806035097	-0.0000422404649810	0.0000545190551594
11
REF_energy=-243.9234981010593515 charge=2 Properties=species:S:1:pos:R:3:REF_forces:R:3
Mg	1.5899290606267167	22.9016070139016925	-11.4541138199454497	0.0000501093550716	-0.0001571272208401	-0.0000642265276781
Mg	-2.8175083014913946	24.5468318505130156	-5.1335831028269032	0.0001550454800682	-0.0001660271631763	0.0001576033884112
Mg	-1.7530750815746756	23.5931170548236189	-7.8006268675371411	-0.0001886685862387	0.0000590683929579	-0.0001224231557400
Mg	0.2289369307083436	20.4165522709170055	-11.1239062953139616	-0.0000089682688403	0.0000767604536753	0.0000580846050354
Mg	7.2881092619618650	17.8854908607145120	-13.5595715324231421	-0.0000654597427372	-0.0000040627502635	0.0000182722063430
Mg	-0.6589037328958267	22.2105031738448631	-13.6025874135974725	0.0000308035120050	-0.0000231043549942	0.0000332495803044
Mg	-1.2826161967499099	22.9508853700512567	-10.6029817110865139	-0.0001210706675848	0.0000843134331809	-0.0001402174739986
Mg	2.1110606323832948	20.7155584057059983	-13.4363154161590419	0.0000801713598087	0.0000281550939376	0.0001102654524522
Mg	4.6742522735385625	19.3580278857865657	-13.1658228805516337	0.0000436586924364	-0.0000801805245553	0.0000173034778376
Mg	3.2396907590143251	20.4994478898410435	-10.4074897858465789	0.0000114962457587	0.0000891035934922	-0.0000654372581426
Mg	1.0256154450444570	21.9577758277613881	-8.5595110945994008	0.0000128826202525	0.0000931010465854	-0.0000024742948246
11
REF_energy=-257.0370647936629211 charge=0 Properties=species:S:1:pos:R:3:REF_forces:R:3
Mg	4.8496258533906689	9.5571343159196740	-6.9412108883910468	0.0000688996832225	-0.0001096492270389	-0.0000680439388632
Mg	3.5735872953748382	11.7856203521122325	-14.0240973703657925	0.0000104576766873	0.0000565322032297	-0.0000906135837091
Mg	5.2546282246012419	7.8729281070757411	-9.1419541492371224	-0.0000414736500043	0.0001337332262706	0.0000448264610248
Mg	7.7484604306488976	9.2055009378605561	-7.8390305899097523	-0.0000453899085115	-0.0000082845422383	0.0000099808786662
Mg	2.6609229868881239	7.4905753417291550	-7.4643847414560973	0.0000527460253937	0.0000864811434561	-0.0000034289279633
Mg	6.3192145861096245	12.0896233653487428	-12.6761803135672526	-0.0000078739267272	-0.0000220329788036	0.0000211655206709
Mg	6.1113070596415744	10.8321480868526372	-9.7748526867918368	-0.0000243166898238	-0.0000046743072517	-0.0000401545337739
Mg	4.4458567993985829	9.6406274923907311	-12.0043307106194170	0.0000612803050013	-0.0000602599149612	0.0001287259788178
Mg	1.4073269423201284	10.4415509064765963	-12.3075081880196411	-0.0000292131843670	0.0000289371163969	-0.0000049633525523
Mg	3.6447524500908837	12.2223919666531184	-11.1247853031908086	-0.0000245249850921	-0.0000106368922826	0.0000389965806269
Mg	2.7160474998533970	9.6912332366277720	-9.5210434203024690	-0.0000205913457789	-0.0000901458267770	-0.0000364910829448
11
REF_energy=-243.3375848200972769 charge=2 Properties=species:S:1:pos:R:3:REF_forces:R:3
Mg	5.9382676287186156	23.8762572947721168	-16.2628305455839417	-0.0002433607158938	-0.0001004711432963	0.0002860179963837
Mg	1.6055543483892099	22.0549067781748640	-9.8311851863444204	-0.0002722492606796	0.0001593566819267	-0.0002023870847531
Mg	8.0228916602635856	24.6683044836481749	-18.3600387304902384	0.0001460204730908	0.0001276215485058	-0.0002132901468063
Mg	-5.9384990320083135	21.1467918117014086	-5.9543166155283194	0.0000069054174167	0.0002373785757892	0.0001896794174142
Mg	-3.2121033725272023	20.3744356346815820	-7.0138056993646805	-0.0000752444431209	-0.0001366693393316	0.0001208928405167
Mg	2.5000849693298512	21.0021235661806678	-12.4859274904687965	0.0000287069703126	0.0000498676224935	0.0001943662692463
Mg	1.6575979383825590	23.8044126827704154	-12.2589485745606179	-0.0000245050284443	-0.0001749625082679	-0.0001572891808685
Mg	-3.6987462484991376	18.3623018064244796	-4.8072911641424589	-0.0001797826965979	-0.0002030728093651	-0.0001075800206062
Mg	-0.3763970543502558	21.6310897046828750	-11.9499419167287204	0.0001945907468690	-0.0001277528321990	0.0001891113725121
Mg	-1.2218037924974885	21.1389342930992008	-9.0329344783938232	0.0001262874342637	0.0000483161258143	-0.0000176304425156
Mg	3.9136714902091345	23.1049188807806019	-14.2236398163859210	0.0002926311027837	0.0001203880779304	-0.0002818910205234
11
REF_energy=-244.1834177254508234 charge=2 Properties=species:S:1:pos:R:3:REF_forces:R:3
Mg	-0.0017882984834793	24.3304298023116630	-11.6229127503981058	0.0000765729515304	0.0000895617051349	0.0000230043521454
Mg	0.4720298350507164	21.5323855438072833	-6.9250247297944645	0.0001492197370710	-0.0000129457236696	-0.0002971215184319
Mg	1.5727772194608622	23.5735145726609154	-8.8522441984278100	0.0000667309469251	0.0000007066282700	0.0001177309007854
Mg	0.8012290776477626	22.5446895591568364	-14.1123394533486373	-0.0000369177381431	0.0000481940695888	0.0000314414411942
Mg	0.6307171696035716	25.3885542343499502	-14.9135426503343833	0.0000102579476227	-0.0001200466969052	0.0001092754478414
Mg	2.4402505095352618	20.4916880786331248	-8.7992931556095115	-0.0000304236177188	0.0001001511193514	0.0001696763196400
Mg	-0.3787272801967085	21.6331220795440302	-9.8108815123966497	-0.0000621420645763	-0.0000097665163675	0.0000122883144272
Mg	2.7993558342954130	24.5479631861380518	-13.0792581714398057	-0.0000838672679703	-0.0000255738999990	-0.0001181128128673
Mg	3.1967923164948973	23.3265281743612363	-15.8770408250836752	-0.0001123971675653	-0.0000995139770129	-0.0000152119790101
Mg	-0.3039687109492087	20.9427454070862247	-4.1223668637409325	-0.0001997775917615	-0.0001185758723454	0.0000843935562685
Mg	2.1275267851805273	22.0951312900591716	-11.4147374606540382	0.0002227438645861	0.0001478091639545	-0.0001173640219927
11
REF_energy=-244.3210704268745701 charge=2 Properties=species:S:1:pos:R:3:REF_forces:R:3
Mg	-1.8712785601502251	19.4106281116770418	-7.5863986108525463	0.0000294837768927	0.0000020171663048	-0.0000479771464234
Mg	2.1013636269269371	22.9906735517078680	-8.8823470275617353	-0.0000017304670265	0.0000072184971487	-0.0000023446337062
Mg	-4.3815356163455128	23.8355990330844278	-4.7882646746353226	0.0000311587791240	-0.0000024628753722	-0.0000063814406389
Mg	-0.6839481915256390	18.7718742661519293	-10.3056427146087550	-0.0000445216972714	-0.0000334890075405	0.0000664226138995
Mg	-2.0058160146842954	25.6639059140345260	-5.6502426018068546	-0.0000177407387711	-0.0000231778856424	0.0000156172384031
Mg	0.8192933945280884	18.0192114123460776	-7.7783801901013252	-0.0000200486695980	-0.0000124855434094	0.0000019151670882
Mg	-0.8601753463124910	21.9660361387571825	-9.2128866495312423	0.0000480823275572	-0.0000053957972014	-0.0000247820613487
Mg	-0.1442660861861353	24.0367118368302819	-7.2359672268974888	0.0000109692958266	0.0000059361389776	-0.0000023534336764
Mg	-2.4046226653425249	22.1727527214065319	-6.4487573607847537	-0.0000199440207484	0.0000122994235761	0.0000089194365991
Mg	1.9053089475371163	20.1432694306943851	-9.6147682801517380	0.0000142851318431	0.0000507711817265	-0.0000029753803755
Mg	0.6115480341286911	21.2286301919619120	-6.7359257579374106	-0.0000299937178282	-0.0000012312985678	-0.0000060603598208
11
REF_energy=-244.2911626515906391 charge=2 Properties=species:S:1:pos:R:3:REF_forces:R:3
Mg	3.8322720944756465	24.0460034813571646	-8.6677989332388172	-0.0000533056492225	0.0000021958409345	-0.0000617540644433
Mg	-1.2464246721464427	23.3466195881725120	-10.8567095233913626	-0.0000710028096122	0.0000033227175262	-0.0000251787220621
Mg	6.1437510191978717	22.2274557120562655	-8.6875306925607347	0.0000339377194677	0.0000059317988198	-0.0000119625853598
Mg	1.6348893960413342	22.5730785337294400	-10.1979348200754796	0.0000879255664343	-0.0000058480583578	0.0000847036523803
Mg	3.4991825296067276	20.8001248923608983	-8.6165395402797706	0.0000763694563849	0.0000132067325364	0.0000012423055853
Mg	-2.4878267031524013	21.1179900660834754	-12.3658640326728602	0.0000452616082134	0.0000017502060994	0.0000219269697412
Mg	0.4542611319709901	21.5731999310201168	-12.7996165105145572	0.0000311319006277	0.0000020474345248	-0.0000080118741479
Mg	-5.1278258786836455	20.4929031917677165	-13.5994030329966584	-0.0000344199414782	0.0000598899965856	-0.0000332900307002
Mg	4.4466538706371175	22.0211296922360269	-11.1550923772728652	-0.0000507498363914	0.0000390070075856	0.0000075540259933
Mg	2.4782839513505741	19.4958112370322141	-11.3664664761675862	-0.0000301707481329	-0.0000349781197820	0.0000557700112024
Mg	-0.4415300484026665	20.3742419836538318	-10.2846993967537994	-0.0000349772662909	-0.0000865255564726	-0.0000309996881894
11
REF_energy=-243.5572327229969574 charge=2 Properties=species:S:1:pos:R:3:REF_forces:R:3
Mg	2.8917614943852699	25.1782065439956071	-12.2663470789260565	0.0001569211057951	-0.0000517025048715	0.0001912241605917
Mg	4.9962586681173038	24.2577937038593028	-4.1205277084030811	0.0000883494442678	0.0000119746888417	0.0001917095865804
Mg	3.5814585443246330	24.2300845844115962	-6.8254820234310971	-0.0001224342504413	0.0000884387901560	-0.0002719894928912
Mg	0.3700486804984694	25.2059305912422715	-13.7669097210350628	-0.0002992268986994	-0.0000444064725385	-0.0002637953738796
Mg	-0.6251353370912638	26.0893309795090396	-16.3642809871259871	0.0001241167122062	0.0002168112070533	0.0000467358865712
Mg	2.2978616341987470	24.4312516175587007	-9.4542048578980182	0.0001784306013870	-0.0000327095015463	0.0000284782907734
Mg	0.6403220026006911	23.0740029723888469	-11.6034260838102430	-0.0000532151433284	-0.0003451539274735	0.0000908551148710
Mg	-1.7036469794940008	17.5442181713544585	-11.8595841058100433	0.0000015732979665	-0.0000558713245574	0.0000845894316584
Mg	-0.9773137233108669	22.6060919015216761	-14.3603795070556988	-0.0000532903011239	-0.0000068967138721	-0.0000554667929597
Mg	-0.7157555334366471	20.4228991892675467	-12.1739632089802825	0.0000603241604902	0.0000869549925496	-0.0000427288585008
Mg	0.4361977117590603	26.1594925942381167	-10.9922969351598461	-0.0000815487285198	0.0001325607662587	0.0000003880471853
11