11
REF_energy=-243.0547727693222271 charge=2 Properties=species:S:1:pos:R:3:REF_forces:R:3
Mg	4.3392115284701696	6.2722502370299225	-12.3146213639412334	-0.0000630687165035	0.0000311685806866	-0.0000536965754658
Mg	2.8022939784264698	14.3387935968393556	-0.8237321702513354	-0.0000467524982130	0.0000926074442359	0.0000432519829934
Mg	-0.9807231013394994	10.4455082025070620	-9.8951220296775446	0.0000989882161503	-0.0000319655408943	0.0000677782949231
Mg	1.0225357181302126	10.0112020652091065	-12.0557973828282137	0.0000373135364471	-0.0000210672795586	0.0000200944628022
Mg	4.8570062415047355	3.3155368936096283	-12.6558688987864905	-0.0000171379688117	-0.0000117258750138	-0.0000935297727852
Mg	2.1070050023221820	11.3509783945193963	-6.0810435174177515	-0.0001004649681917	0.0000104982530920	0.0000705656391456
Mg	1.6824966046536285	9.9253600084006450	-8.6509537962305085	0.0000613479622927	-0.0000282199530720	-0.0000074558508338
Mg	2.7749363915261589	8.0716675913963041	-10.7128874733390269	-0.0000354370395502	-0.0000098680060537	0.0000470085311415
Mg	-0.1317390844660536	7.6658762163485861	-10.5481028527218132	0.0000412379939753	-0.0000265691542582	-0.0000874683640490
Mg	6.2598180305111830	6.3172996505984349	-14.6463634195767884	0.0000092760652326	-0.0000672756089123	-0.0000550637609673
Mg	2.4555719662866649	12.8279634618650480	-3.4821024709922326	0.0000146974171720	0.0000624171397484	0.0000485154130953
11
REF_energy=-243.8411669470537504 charge=2 Properties=species:S:1:pos:R:3:REF_forces:R:3
Mg	-16.5966082157346193	8.6026601828696236	17.2458164178499302	-0.0000103179137031	0.0000710554371131	-0.0003058279265922
Mg	-18.0020832381406422	12.5966141715539859	14.1471500591611701	-0.0000284734760752	0.0001742996488441	0.0001613221014196
Mg	-18.4301681560787358	14.1853519228768405	16.6056173500432607	-0.0000071025054189	-0.0001096317856410	-0.0002317853249146
Mg	-18.8582794928107411	11.0351067768601574	16.9645505847253055	-0.0000930027847551	-0.0000275484411569	-0.0000829838540528
Mg	-17.0957416451806488	10.3852000502316884	19.5533189500162941	-0.0000158172928483	0.0002055063200835	-0.0000033217444025
Mg	-18.0107763996608732	13.1916779155995947	19.3600487853861409	0.0000904900913509	-0.0002171292232247	0.0000410646796380
Mg	-17.0888305739523929	9.8187298119573931	14.5943961662597292	0.0002300894107681	-0.0002051659034870	0.0002002826431159
Mg	-18.4894876269857846	14.9308441854484197	21.8140506975586383	-0.0000212603289255	-0.0000806919646044	0.0000814941244314
Mg	-16.2178551159499804	11.8910266869918892	16.8709818207543947	0.0001270713733245	0.0001267497172934	-0.0001140908357538
Mg	-15.6332835201409566	5.7314530128448942	17.5694096927279517	-0.0001529533545499	-0.0000025760116768	0.0002150623596193
Mg	-18.4640218547475570	13.7347458479464350	11.3600393194189060	-0.0001187232191676	0.0000651322064566	0.0000387837774916
11
REF_energy=-244.0103281340860804 charge=2 Properties=species:S:1:pos:R:3:REF_forces:R:3
Mg	6.4050361264659150	9.3179240991277794	-12.0888188854472300	-0.0000700965694845	0.0001024625354440	-0.0000008031923986
Mg	8.9669843698891878	10.8603490112002881	-7.8995239576176282	-0.0001191911120889	-0.0001015010867544	-0.0001388079016519
Mg	4.3776730567814699	7.3315083377266372	-13.3037483489872930	-0.0004094089093724	0.0000639841292759	0.0002639053600383
Mg	6.0164464153167243	10.2595406360197128	-8.8779380987779781	0.0001519816277686	0.0003258949797784	-0.0000736365718949
Mg	6.6909985847440323	11.7916820684693509	-6.2019145400967828	-0.0001217732014763	-0.0000308387609355	0.0000663173083648
Mg	1.6652107238950968	7.7897719080867933	-12.1515414534830484	0.0002724991205296	-0.0002305908073283	0.0000357261317348
Mg	8.1607238633091050	11.1377752156928693	-10.7903154335609006	-0.0000197058510986	-0.0000740125195674	0.0004300525845553
Mg	4.0463261869057394	8.2200633573945048	-10.3935231045801952	-0.0002093822648238	-0.0000704643564710	-0.0002410724867366
Mg	7.2178546622640436	13.1867477381973206	-8.7912542179801942	0.0003103099094651	-0.0001323789147823	-0.0002086532113271
Mg	0.5381844539072985	4.9163991677629078	-12.3219876008271108	0.0000226932684578	-0.0001939484223526	-0.0000034586418367
Mg	3.3828273859953804	5.4287222497190619	-11.2350038731727739	0.0001920739821235	0.0003413932236932	-0.0001295693788474
11
REF_energy=-245.0720191368444034 charge=2 Properties=species:S:1:pos:R:3:REF_forces:R:3
Mg	4.0494134813099052	-0.2169603620591451	-3.9128106848222464	-0.0000412227586055	-0.0000368177128754	-0.0000377599160508
Mg	2.3904742494973799	1.1950862871070576	0.4393165334745229	-0.0001317461440432	0.0000366243532639	-0.0000670060920368
Mg	1.4450339674145174	-1.6559960615429594	1.0398622454687654	-0.0000338344778460	0.0000013449152567	-0.0000454636046161
Mg	2.3882811926844072	1.9786854118403052	-2.5074637513084927	0.0000161165831947	-0.0000387193122237	0.0000177011912535
Mg	4.9875118393702706	0.8263339738943613	-1.2963590641119724	0.0000516934694747	-0.0000420308328022	0.0000561194013539
Mg	0.9218793059794725	-0.4352413880704139	-3.6543135794389743	0.0000339064641373	-0.0000075799390939	0.0000531466345727
Mg	2.6882648399267559	-0.9874655429393112	-1.4332198703072017	0.0000426659088382	-0.0000185506488912	0.0000013602503883
Mg	0.4638878996158962	-2.7457147586144921	-1.6963597251373839	0.0000089115987832	0.0000322281141711	0.0000902148772824
Mg	4.4927539534226728	-1.4954059947787108	0.7655908749834001	0.0000983712014192	-0.0000104804994301	-0.0000153757757587
Mg	5.5789414274663676	-2.1219627261281588	-2.0171667855942768	0.0000360326037733	0.0000498967362473	0.0000877907083869
Mg	3.0213680503219442	-3.1331287455868990	-3.3393763656540676	-0.0000808944491257	0.0000340848263775	-0.0001407276747752
11
REF_energy=-243.4763501580539469 charge=2 Properties=species:S:1:pos:R:3:REF_forces:R:3
Mg	-15.8661210067485019	8.3267565139437174	16.1385287452021764	-0.0002135739222430	0.0000323647740968	0.0000072121230154
Mg	-15.5031900575219996	9.2640548094271509	19.2846778553446292	-0.0000362232599247	0.0000110871931972	-0.0001124339202190
Mg	-11.2383901737600329	11.7657149163583661	17.8212449449902515	0.0001134687161709	0.0000188045710745	0.0000009777206752
Mg	-13.5452966768279559	11.6584029752272631	19.7138977008910530	-0.0000087391003285	-0.0000341615186408	-0.0000102561656742
Mg	-13.5335866311157531	13.6805672649459673	17.5166848874765542	0.0001468529658210	0.0001429278528443	0.0000702891334303
Mg	-15.5737312478405112	10.0594672832839525	24.8669662715393187	-0.0001018398213383	0.0000137365114966	-0.0000883661085861
Mg	-14.0492837996152673	10.6089985501347268	16.8954731639767672	-0.0000934590263141	-0.0001196869823584	-0.0000086883397895
Mg	-14.5883661822880306	10.8148229019237441	22.2326068604488611	-0.0000509009161418	-0.0000032228081942	0.0001094835451124
Mg	-17.5055791667150373	11.1270175483117146	26.9274076976529422	-0.0001500068252054	-0.0001990612378009	-0.0001352943283859
Mg	-14.9594710846976255	8.1399965318885208	27.1110545168507713	0.0002957575007386	0.0001632768172567	0.0001933992180772
Mg	-12.4187338983927500	12.2841327549861674	15.1601953496854325	0.0000986636887652	-0.0000260651729717	-0.0000263228776558
11
REF_energy=-244.1259118614615886 charge=2 Properties=species:S:1:pos:R:3:REF_forces:R:3
Mg	0.6864222566743789	25.1716440158232011	-8.8798927254483466	-0.0000633893481264	-0.0000799383708056	0.0000562446393177
Mg	-1.3929231515587919	23.7649273983292275	-10.4635598161530066	-0.0000675165717792	-0.0000161540833691	0.0001002767381347
Mg	2.0407442604264245	20.1738156087168115	-8.5070944301346749	0.0000914311705563	0.0000764526836127	0.0000115959086550
Mg	1.5761175821114923	22.4360854156197256	-10.7229405456427607	-0.0000101260339800	-0.0000103737268373	0.0000790130972071
Mg	-0.9274981803691462	21.4442202073832071	-5.5289805397512026	-0.0000080585796907	-0.0000970609306329	-0.0000409681785899
Mg	2.3218565789622811	19.4869936298087403	-11.3380862176458130	-0.0000173635937123	-0.0000113634773470	-0.0000728268498535
Mg	0.7951833461647781	25.2876967944220539	-11.8623055999656053	-0.0000475571226655	0.0000588066205105	-0.0001944329940507
Mg	-0.0010892433780265	22.3416902522103022	-8.1743696975677054	0.0000308442303047	0.0001090668663894	0.0000732814722965
Mg	-1.3610534328985378	26.9114805966058164	-10.2915335595891584	-0.0000195241041336	0.0000229942298079	-0.0000441647192333
Mg	-0.3980897700764242	20.1394274469975798	-10.2490641507563733	-0.0000317360389234	-0.0000146230369229	0.0000137495467800
Mg	-0.2398200255151621	27.7855920668781664	-13.0642990603489686	0.0001429959921502	-0.0000378067744056	0.0000182313393365
11
REF_energy=-256.9238490272449553 charge=0 Properties=species:S:1:pos:R:3:REF_forces:R:3
Mg	5.9314594744728035	23.9119781311554682	-9.9468458610424317	-0.0000702159922474	-0.0001067401199188	-0.0000712011178520
Mg	1.1385085309119061	25.8559317084011724	-9.3429752936839048	-0.0000151853629009	-0.0000084122944985	-0.0000308317893734
Mg	1.7095734996652872	21.2186491263875823	-7.4119481668755993	-0.0000268622186907	0.0000140819616491	-0.0000240460969561
Mg	5.6906614841899286	25.1964755158099507	-7.2640135378531294	-0.0000045980788988	0.0000488344737892	0.0001094231707626
Mg	0.4322050440049853	22.7382749501964199	-9.6403633444840757	0.0000826681543429	-0.0000329682689210	0.0000489621339413
Mg	2.7016050157334308	26.3022786175465342	-6.8788192012382741	0.0000809435447487	0.0000640815603394	0.0000548499406375
Mg	-1.2715204418053412	21.3273784499500572	-7.5711091415735554	0.0000574759968078	-0.0000094134721105	-0.0000843388123218
Mg	4.2037753507935331	26.3969899820845164	-9.5446586206277075	-0.0000525511231767	0.0000174036218568	0.0000541732794210
Mg	7.5223799020718785	26.3737289676587956	-9.3695191055370994	0.0000145013665090	-0.0000120777474627	-0.0000805437777566
Mg	3.1786696626637578	23.7513652170480398	-8.4879159733518694	0.0000424553214891	0.0000171269055654	0.0000034426696796
Mg	0.5793482250623493	24.0184339375114568	-6.9586097554462247	-0.0001086316079830	0.0000080833797118	0.0000201103998178
11
REF_energy=-243.9673155240804476 charge=2 Properties=species:S:1:pos:R:3:REF_forces:R:3
Mg	2.5168551338244107	24.5468018139440005	-11.5151162912976321	0.0000124746192334	-0.0000122096293026	-0.0000469366450839
Mg	2.0036998892289852	21.5683907728474367	-10.7378854694323280	0.0000033740726731	0.0000379660859059	-0.0000169832322267
Mg	-1.6831201002098664	18.0703578954363913	-13.6583814416977471	0.0000673149720672	0.0000487261600044	0.0000067388653464
Mg	3.3582555543703676	24.1435353659595222	-8.7034350182710938	0.0000287254068007	-0.0000459278615941	0.0000155898459394
Mg	0.8935006335359623	21.8550650135030118	-5.8227982267824014	-0.0000229532028533	0.0000587886515567	0.0000856158686209
Mg	-0.2907688276724374	23.2985697365526185	-11.7167160939769044	-0.0000620994209437	0.0000660813404232	0.0001137545747350
Mg	3.0323731916470433	21.2762895223850954	-7.8471663606715172	0.0000524012510709	-0.0000281008179564	-0.0000235103808254
Mg	-0.3234730392130057	20.3660566817083613	-12.2412065209325327	-0.0000940896688396	-0.0001491488126433	-0.0000625284836483
Mg	3.3260741689801367	25.0617860945117030	-14.3173825989926762	-0.0000080641929972	-0.0000041214281533	0.0000246762438809
Mg	1.7770361076534114	22.4441817438305016	-13.6489580195302249	0.0000557065627603	0.0000175965055684	-0.0000159053902140
Mg	0.5638466215238996	23.1308255202039241	-8.5993572467037538	-0.0000327903989717	0.0000103498061910	-0.0000805112665243
11
REF_energy=-257.1798453702875804 charge=0 Properties=species:S:1:pos:R:3:REF_forces:R:3
Mg	-21.6564330721804446	42.6801603889758070	19.7704011205685610	-0.0000039892273515	0.0000047400115723	0.0000124590021910
Mg	-21.4697637949409810	38.7030064769022459	21.9417976631210898	-0.0000059980525107	-0.0000088912669594	0.0000018169248035
Mg	-19.4418446002610636	43.5612019871019029	21.7886154764901967	-0.0000246131971120	-0.0000245647455551	-0.0000066444148898
Mg	-18.7776142314581342	41.5342779882472897	24.0003447667786851	-0.0000232541271053	0.0000105001157749	-0.0000072603096253
Mg	-23.7454603311147601	40.8211296884315686	20.7878232662780640	0.0000010984262311	-0.0000134063081993	-0.0000606129866231
Mg	-23.7069028039059333	41.4160919922611015	17.8946822007845086	0.0000144939884926	-0.0000198851236764	0.0000326769302962
Mg	-19.5127506660467773	37.7964267423717359	19.9248760593887795	0.0000275528387981	-0.0000465877380170	0.0000096643131787
Mg	-19.3412658234069497	40.5656608346299947	21.0344079504844181	0.0000061980095634	0.0000369983551364	0.0000083609741278
Mg	-21.5943612264437768	41.8291583007817351	22.7567943864267583	0.0000481691864715	0.0000346580437380	0.0000066360102330
Mg	-21.6292954902852479	39.5397960603157586	18.9843177519903712	-0.0000513630972183	0.0000501842631315	0.0000025273510335
Mg	-20.2205522870008387	44.1375742309073900	24.5759971953290624	0.0000117052517410	-0.0000237456069457	0.0000003762052745
11
REF_energy=-259.3735159444427723 charge=-1 Properties=species:S:1:pos:R:3:REF_forces:R:3
Mg	2.3653362751488487	22.5418196516693321	-11.0295794555395599	0.0000235546499729	-0.0000829195263373	-0.0000700325189959
Mg	1.6040349665775195	23.8038708372036645	-13.4742298380579140	-0.0000428944848769	0.0000392593048455	0.0000300490290854
Mg	-0.7915997426616777	23.5309580147187560	-11.6978539551265523	0.0000115521882322	0.0000213211375818	-0.0000177333662619
Mg	0.0967352004404264	23.7263168409213989	-8.8179228182915086	-0.0000432606168125	0.0000335304690966	0.0000148777526109
Mg	1.4239442296081699	25.4998793040772824	-10.9804510893675698	0.0000040373368036	-0.0000293186238222	-0.0000067940919670
Mg	1.9708291351184717	19.5519452319141145	-10.9458825850933970	0.0000249923001817	-0.0000045126378701	-0.0000061230130312
Mg	0.3409082560755013	21.0868680375974762	-13.0656302317345165	0.0000325230859450	-0.0000101674366552	0.0000283179587504
Mg	1.3204903359420905	18.3037923795890727	-13.8095791171980675	0.0000160260074217	0.0000205530579641	-0.0000054659649225
Mg	-0.6842883114324946	18.3797966644372046	-11.6223277491045813	-0.0000232180897003	0.0000154722866436	0.0000199745857086
Mg	-0.6440937056677606	21.0702991487591724	-10.0828692373736999	-0.0000382931126511	-0.0000116828929787	-0.0000282284122036
Mg	1.8744962911434033	21.3420125033336525	-8.4598551178160566	0.0000349807354837	0.0000084648615320	0.0000411580412267
11
REF_energy=-243.4458523154275156 charge=2 Properties=species:S:1:pos:R:3:REF_forces:R:3
Mg	-13.9667513224123230	11.7261468409698306	16.4199575743991026	-0.0001341389091964	-0.0000995370409543	0.0001627969929844
Mg	-21.5039836784017133	7.5531847156057230	18.2451838325368065	0.0000942304393757	0.0000530064183961	-0.0000226470935814
Mg	-11.8891327715521875	12.9993464081487371	14.5636402611450464	0.0000168779697062	0.0000428111111136	-0.0000922248949171
Mg	-18.9879818510262304	8.9545080459968922	17.5701055274336255	0.0000552259540890	0.0000229222637205	0.0000183583986024
Mg	-26.6423369351401611	4.6857111777106928	19.6748174748430706	0.0000452509653949	0.0000308126333577	-0.0000994275430410
Mg	-11.3690210146532475	13.5568946342208427	11.5592818666007009	-0.0002317988439736	-0.0001161552480417	0.0000189884722447
Mg	-16.4754133198425770	10.3479501948590755	16.9391312767433284	0.0001508577207218	-0.0000228146156255	0.0000328065580318
Mg	-12.4554465477887160	14.1278597449007002	17.4002657039716162	0.0000172627875794	0.0000688146699042	0.0000551629443971
Mg	-9.6787105369454256	14.0036231974627920	16.3261143381892140	-0.0000176611942633	-0.0000303936544701	-0.0000686746886474
Mg	-11.0644419336751660	11.4986350697246493	17.1536921711669414	0.0000875560703284	0.0000438820325793	0.0000364488197421
Mg	-24.0420327364213016	6.1369364407540390	18.9466256850278967	-0.0000836629597620	0.0000066514300203	-0.0000415879658156
11
REF_energy=-245.2640918208298899 charge=2 Properties=species:S:1:pos:R:3:REF_forces:R:3
Mg	0.9248946522437469	23.6271255126514887	-8.6770474183386792	0.0000258608249038	0.0000573588049815	-0.0000979842543750
Mg	2.8373634369234653	23.1963545342334783	-12.4754382260228081	0.0000214445132513	-0.0000071509776891	0.0000676770840232
Mg	0.7713995288756981	21.9432772167210857	-10.9301024274411898	-0.0000834147589450	0.0000596785405136	0.0000246670347736
Mg	2.4111482786437106	20.1057599895102044	-12.4621912559222547	0.0000454379804750	0.0000249790620926	-0.0000362262284081
Mg	-1.1078114359440925	21.1866573500479838	-8.9569740085185501	0.0000619873066815	0.0000276825539052	-0.0000243839244762
Mg	-0.7100137199101539	19.6461767703668180	-11.9006475571068737	-0.0000262954826211	0.0000077868965674	0.0000156511940219
Mg	1.3771662779134020	19.4835314873786132	-9.5849840225887579	-0.0000385672002053	-0.0000496485397314	0.0000230672528548
Mg	0.2506488220631629	24.6333990155920510	-11.6276807461399976	-0.0000674996511834	-0.0000308454410002	0.0000061236759062
Mg	0.2401544434947067	22.0627044505365610	-13.7789315449174765	0.0000043301941833	0.0000467072460928	0.0000117615371690
Mg	-1.9605700291036157	22.4916592792063703	-11.6101436138240572	0.0000814807928852	-0.0000715998706475	0.0000218082552569
Mg	3.3416007987932281	21.8473271104510403	-9.7553426495939703	-0.0000247645194253	-0.0000649482750848	-0.0000121616267463
11
REF_energy=-259.8625150495232106 charge=-1 Properties=species:S:1:pos:R:3:REF_forces:R:3
Mg	1.2518551278070691	23.2046727196284621	-13.2299803560950497	0.0000179265528320	-0.0000485195011434	0.0000178482589415
Mg	-1.6222313997242808	20.8275473143166465	-11.1515962269387412	0.0000396062948650	0.0000064922679480	-0.0000007034728821
Mg	1.5376156672148944	24.1437716496336350	-10.4885450919569845	-0.0000336739451823	-0.0000186956402225	-0.0000216899825440
Mg	3.9455000720252924	19.7351972808696914	-9.0856219828505047	0.0001484573834000	-0.0000336791451770	-0.0000077505487605
Mg	0.9108582989937466	19.9096459868638753	-10.0094241017967072	-0.0000402443245331	0.0000130439018171	0.0000169788517997
Mg	2.4159219124493170	22.1449807933057343	-8.4469378706633638	-0.0001232335410942	-0.0000509991448133	-0.0001100297318211
Mg	-1.1647749622503429	23.7934752034203250	-11.5126941523178488	-0.0000787681832935	0.0001198625228696	-0.0000021522623223
Mg	-0.5026235333216128	22.4562288937484240	-9.0131558148869022	-0.0000145832853143	0.0000135046486742	-0.0000440247721853
Mg	2.9257975997479240	21.5762143484415070	-11.4664472466314518	-0.0000125326305453	-0.0000046624563546	0.0000068079147010
Mg	0.7063511371380715	20.3173739025234141	-12.9007940511054446	0.0000301101495630	-0.0000187154157417	0.0000441415718657
Mg	-1.5218509641023070	22.1306209553191948	-13.9082429283262261	0.0000669355293028	0.0000223679621436	0.0001005741732073
11
REF_energy=-243.3375848200972769 charge=2 Properties=species:S:1:pos:R:3:REF_forces:R:3
Mg	5.9382676287186156	23.8762572947721168	-16.2628305455839417	-0.0002433607158938	-0.0001004711432963	0.0002860179963837
Mg	1.6055543483892099	22.0549067781748640	-9.8311851863444204	-0.0002722492606796	0.0001593566819267	-0.0002023870847531
Mg	8.0228916602635856	24.6683044836481749	-18.3600387304902384	0.0001460204730908	0.0001276215485058	-0.0002132901468063
Mg	-5.9384990320083135	21.1467918117014086	-5.9543166155283194	0.0000069054174167	0.0002373785757892	0.0001896794174142
Mg	-3.2121033725272023	20.3744356346815820	-7.0138056993646805	-0.0000752444431209	-0.0001366693393316	0.0001208928405167
Mg	2.5000849693298512	21.0021235661806678	-12.4859274904687965	0.0000287069703126	0.0000498676224935	0.0001943662692463
Mg	1.6575979383825590	23.8044126827704154	-12.2589485745606179	-0.0000245050284443	-0.0001749625082679	-0.0001572891808685
Mg	-3.6987462484991376	18.3623018064244796	-4.8072911641424589	-0.0001797826965979	-0.0002030728093651	-0.0001075800206062
Mg	-0.3763970543502558	21.6310897046828750	-11.9499419167287204	0.0001945907468690	-0.0001277528321990	0.0001891113725121
Mg	-1.2218037924974885	21.1389342930992008	-9.0329344783938232	0.0001262874342637	0.0000483161258143	-0.0000176304425156
Mg	3.9136714902091345	23.1049188807806019	-14.2236398163859210	0.0002926311027837	0.0001203880779304	-0.0002818910205234
11
REF_energy=-243.9832534960552550 charge=2 Properties=species:S:1:pos:R:3:REF_forces:R:3
Mg	2.2496723168154023	23.2520222911020262	-9.7169539849777529	0.0000224114852164	-0.0000596242313773	-0.0000261190116813
Mg	2.3330742879410691	21.4732979531720680	-11.8718478368628180	-0.0000117352270653	-0.0000162486375883	-0.0000166192477313
Mg	5.3931783971043696	22.0034570022678295	-10.3879537633821943	0.0000271210175845	-0.0000071595757944	0.0001299034341314
Mg	3.4464489068726829	20.2828249077955718	-9.0333111889480708	0.0000178487091035	-0.0000784763907467	0.0000138859146602
Mg	-1.0280208412207548	18.4638734596785454	-7.7054451675741875	0.0000816411491710	0.0000440056427635	0.0000996530350133
Mg	-0.5667503462600332	26.2362690679077097	-14.1028892708650684	0.0000170577708805	0.0000479870574176	-0.0000343863099732
Mg	0.5194651424678463	20.5142658382161684	-9.3339537385202593	-0.0000678031638790	-0.0000403353291964	-0.0000771530169318
Mg	-2.5114967291325470	24.3436088508786455	-12.6297020909466422	-0.0000118741420261	0.0000974360238184	0.0000333464063600
Mg	4.3217827719484658	24.1124546742007055	-12.1650604435672065	-0.0000596939193671	0.0001200045119873	-0.0000282978088451
Mg	1.4582309084729215	24.5350124970077843	-12.6178647079060031	-0.0000195046934695	-0.0000333897632336	-0.0000281388527557
Mg	-0.4964144166553718	22.6488370227564992	-11.1369015642942610	0.0000045310138511	-0.0000741993080502	-0.0000660745422465
11
REF_energy=-244.7860470240626682 charge=2 Properties=species:S:1:pos:R:3:REF_forces:R:3
Mg	-1.7130760681869370	22.3119819829458592	-5.8677279159926155	-0.0000573189454366	-0.0000450704484946	-0.0001245230042618
Mg	1.3514221709395764	21.3003612316008706	-14.0900365760691013	-0.0000517473714057	0.0000231247466734	-0.0000372420449703
Mg	2.1988128983711230	22.1932388927203625	-10.1980362586542590	0.0000366495405904	-0.0000291530631728	0.0000174795965332
Mg	2.5060981561340681	19.6373090870140707	-11.9467895504046151	-0.0000892192544582	-0.0000142507310408	0.0000573626559064
Mg	-0.5583929069028508	20.8605249820641596	-11.4778951110534972	0.0000756096798655	-0.0000635950911960	0.0001317559940228
Mg	1.6732617545554598	23.9592690205140784	-12.7799112282963758	0.0000848189973277	0.0000469422312300	-0.0000244825029963
Mg	4.0402044966264938	22.0728917148498098	-12.6438865827221889	-0.0000525236701642	-0.0000157855836278	-0.0000207432372153
Mg	-0.2957619623998307	21.9835238163197886	-8.4929087590307173	-0.0000240097403136	0.0000764341674705	-0.0000166247739153
Mg	1.0295320088002038	19.4971100051292581	-9.4055053005186640	0.0000979394773271	0.0000323296744063	-0.0000409469784710
Mg	-1.2233312677129333	22.9009853373759711	-13.5853628144409395	-0.0000446660475181	0.0000048951221214	-0.0000249115761187
Mg	-0.5537894581847992	23.8384851581052004	-10.8406208949444363	0.0000244673341858	-0.0000158710243696	0.0000828758714863
11
REF_energy=-243.6706037783478962 charge=2 Properties=species:S:1:pos:R:3:REF_forces:R:3
Mg	5.6232780470426817	-3.5165430658742101	1.1176810488573212	0.0000650316717916	-0.0000997563288666	-0.0000285968929050
Mg	5.3955188454531120	-4.7327498604686289	4.1072939490640472	0.0000138921168761	-0.0000535725004081	0.0000378155862357
Mg	7.9197820560918872	-3.3966427395901415	3.1179608010439233	-0.0000128549304988	0.0000922079116833	0.0000124563302621
Mg	5.1444664026267555	-4.2522814586623499	7.0813084401456319	0.0000450558890419	-0.0000244046494033	-0.0000146549845548
Mg	7.6335538425203540	-2.9412238818263461	6.1001629449272263	-0.0000752825352553	0.0000436117455906	0.0000093966404529
Mg	9.8085027264311595	-3.4405428936369957	-2.4893420197549143	-0.0000355117195541	0.0000510302551234	0.0000041727052262
Mg	8.5617770644294318	-3.6199153946334097	0.2343321662270230	-0.0000194093124958	0.0000073669288461	-0.0000109815832281
Mg	6.6159514448428780	-5.1827156565488242	-1.4962186782182587	0.0000221984181308	-0.0000185900484644	0.0000102563611589
Mg	12.2275650487272269	-2.1908312362713103	-3.8890950372862219	0.0000610388630291	-0.0001124956061934	0.0000038437935390
Mg	7.9160532664043473	-5.0096115434380799	-4.2093215066643914	-0.0000619478620439	0.0000977815311686	-0.0000144158344034
Mg	7.1006341590092026	-5.9293445436754908	1.6338743735894792	-0.0000022105990216	0.0000168207609238	-0.0000092921217835
11
REF_energy=-243.2023308933024168 charge=2 Properties=species:S:1:pos:R:3:REF_forces:R:3
Mg	6.5128737879292879	12.7689622198851840	-12.1269451606661409	0.0001912895128991	-0.0000808240181965	-0.0000034672210776
Mg	2.5352109026392036	11.7661142375832828	-10.0598135606270613	0.0000800185592001	0.0000219191595177	-0.0001137039984540
Mg	12.3170271089187455	18.6600718438588693	-15.4556111698959899	-0.0000149254367201	0.0001941050863726	-0.0000008739671039
Mg	4.9674092754954433	13.4705552611742938	-9.7256276553083545	0.0000266868463587	-0.0000834873623461	-0.0000744676384739
Mg	4.9504254564887429	10.4143253698010021	-11.1760081147760051	0.0000960098283931	0.0000519863582131	-0.0000778224939284
Mg	4.7466453096594217	7.4632164283302966	-10.8664884672174207	-0.0000178302583125	-0.0000753511312907	-0.0000161018430954
Mg	4.4540777776091307	4.4807888141615306	-10.5126174261390624	-0.0000780200825153	0.0000757650454705	0.0000034706966740
Mg	4.1503841727969926	1.4310695809184319	-10.1510562621352403	-0.0001131380667762	-0.0000097104963028	0.0001070648178573
Mg	10.3459649018453970	16.6136096325876252	-14.3224854113413578	-0.0001559034603063	-0.0000494392735331	0.0000618991697940
Mg	8.4226393757666447	14.6265191803212495	-13.2169745266028453	0.0000370608835714	0.0000134157269616	-0.0000097453567366
Mg	3.6291663775695024	13.2799510649274985	-12.3931806829953626	-0.0000512483257919	-0.0000583790948663	0.0001237478345444
11
REF_energy=-244.2481785778153949 charge=2 Properties=species:S:1:pos:R:3:REF_forces:R:3
Mg	3.7752625195595653	21.1320810049808507	-9.5465411480387576	0.0000706374766341	-0.0000287458422924	-0.0000097899252016
Mg	1.6570546596873355	21.8903976670315501	-12.1429570945025986	-0.0000101386075199	-0.0000240289155649	-0.0000345012399929
Mg	-1.0207276167918817	20.7536993257622626	-11.3783174580735285	-0.0000931231245234	-0.0000190807714248	0.0000784994000210
Mg	2.0043768515874727	19.6789628309363778	-7.2828936755545657	0.0000464761484209	0.0000233127134383	0.0000211889154751
Mg	4.2900662344915483	18.3761039080715172	-8.4984275919729608	0.0000401826661142	0.0000629036748915	-0.0000671429750508
Mg	-0.1356071314178516	23.8588679782396440	-10.9416507014261253	-0.0000163907845486	-0.0000349263230682	0.0000683616504670
Mg	0.9070512340352247	21.6860108869490134	-9.2324821125237069	-0.0001018140887543	0.0000425548392735	0.0000536716105779
Mg	3.0408033558129772	24.1056085227067385	-10.2305883874603385	-0.0000143278985370	-0.0000130631551312	-0.0000584188473313
Mg	-2.3445298229595801	23.2820050339878577	-16.2055119617839196	0.0001630086821155	0.0000738142280772	0.0000349577311610
Mg	1.6512865426028922	18.9769106076356699	-10.2485767339092764	-0.0000151180390062	-0.0000543490362104	0.0000282598216325
Mg	-1.1798539342338477	22.9562280431879451	-13.4715669927431332	-0.0000693924303954	-0.0000283914119886	-0.0001150861417579
11
REF_energy=-243.5747277890723126 charge=2 Properties=species:S:1:pos:R:3:REF_forces:R:3
Mg	-1.7015733177365278	22.2562198460114224	-13.6471213837945538	0.0000489973977027	0.0000890630162317	-0.0001405115399242
Mg	1.3050529781507441	22.9824414100406109	-12.6762778113127315	-0.0000394843479904	-0.0000944675550547	0.0002386219546111
Mg	-1.4709294464788010	19.7894361042812754	-15.4345756444057525	0.0000891387627517	0.0000000240041830	0.0000377728723115
Mg	-0.3161908798344987	21.4888576069861372	-10.8175167321248598	0.0001784854444072	0.0002335750033452	-0.0002072464007467
Mg	0.5851445837058938	20.0804071011293352	-13.3993513990639439	-0.0000508733146147	0.0000614292303924	0.0001765368719029
Mg	3.1653597193107590	24.6257831835401291	-7.5069622029811089	-0.0000524550312560	0.0000243485234333	-0.0000894764115545
Mg	1.9362308533991994	23.2065768666709893	-9.7094982825124383	0.0000283200702186	-0.0000161503161477	-0.0002031653300465
Mg	2.6541277681460094	20.6494173042161648	-11.1373916835344140	-0.0000526428479979	-0.0000522661087874	0.0000800574764109
Mg	-3.0951607911171495	18.7198263441008734	-17.7270793183725992	-0.0001372230311881	-0.0001319085238044	-0.0000089685811603
Mg	2.8893207746377065	24.9364816832606095	-4.5157040914345705	0.0001071766243186	-0.0002304443459388	0.0000641477832201
Mg	5.4135588667659409	26.5752797847623263	-6.9901305894286336	-0.0001194397263516	0.0001167970721476	0.0000522313049757
11
REF_energy=-259.3569819939463628 charge=-1 Properties=species:S:1:pos:R:3:REF_forces:R:3
Mg	3.5265379916976154	21.7705682309124313	-14.1104664416934025	0.0001134024378577	-0.0000659016327628	0.0000409200086932
Mg	-0.4459941174381788	24.8596734380044637	-12.8459425591930785	-0.0000513749159102	0.0000745081926561	-0.0000245146988973
Mg	3.0089424583685869	20.0656074382075360	-11.5962486960525375	-0.0000297778149567	0.0000138531307645	0.0000049661226602
Mg	3.8533695692951739	22.8731167679761569	-11.2191940868174154	0.0000752518671040	-0.0000270372803073	0.0000844521993262
Mg	2.5479882532248395	24.4683692263008226	-13.3260992940236012	0.0000852976848428	0.0000974773474445	-0.0000327925574050
Mg	3.6986155738955153	18.7098195470629953	-14.2133952442300444	-0.0000379925062973	0.0000484007938858	-0.0000560251710107
Mg	0.7269777319629271	22.8274836469122668	-14.9625404046440078	-0.0000968461747839	-0.0000267897556801	-0.0000662598295331
Mg	-0.0371887133428099	19.8259506172895215	-11.1141235977262731	0.0001722619630333	0.0002043667197342	-0.0000895973246132
Mg	0.9413691050216123	22.3249954440076763	-11.9579610936432026	-0.0002093302171203	-0.0003272444784782	0.0001195771443694
Mg	1.5381611428275956	24.8887791224726129	-10.4707805541904815	-0.0000002122918296	0.0000556982219025	0.0000047155050854
Mg	0.9831418973567606	20.0355114511918089	-14.0261918046628953	-0.0000206800319400	-0.0000473312591592	0.0000145586013250
11