11
REF_energy=-253.1992696615511704 charge=1 Properties=species:S:1:pos:R:3:REF_forces:R:3
Mg	3.0693667602201975	24.0870890914691742	-11.3114112287008908	-0.0000066873662720	-0.0000235599631110	0.0000208277895836
Mg	0.3533550105029507	23.4846006172887414	-12.4753811491415583	0.0000420323284127	-0.0000074555577348	-0.0000145277099929
Mg	0.9583943954180405	19.9978616145549069	-9.0042174243909852	-0.0000728936575997	-0.0000004022104590	0.0000411572516684
Mg	2.6479622744071714	21.7819513622136682	-13.1961624342664781	-0.0000129856507769	0.0000128867884544	0.0000587978655023
Mg	-0.9200960550452466	21.0503142988892158	-11.1311783790141359	0.0000018232900522	-0.0000198069556174	-0.0000241096244166
Mg	-1.6919622406473118	23.8265686922878146	-10.4152326167406422	-0.0000687534422932	-0.0000531266540730	0.0000683212944384
Mg	3.2870136538926138	21.2867435100910072	-10.2740671307497369	0.0000327987388888	0.0000396222710768	-0.0000226077534118
Mg	1.0123398936552046	22.9773106878429196	-9.5320114799989888	0.0000202176892756	-0.0000124477852322	-0.0000385108483961
Mg	1.3734831773008669	19.3785619639177114	-11.8573366181029431	0.0000033766466633	-0.0000116171738194	-0.0000915179965005
Mg	-0.1256495843636374	20.9008869076037591	-13.9551031967801400	0.0000154888215313	-0.0000169734089604	-0.0000014915237203
Mg	-1.5092274633012541	21.7837924824787947	-8.1765793342400670	0.0000455826021181	0.0000928806494760	0.0000036612552455
11
REF_energy=-253.1586316955425957 charge=1 Properties=species:S:1:pos:R:3:REF_forces:R:3
Mg	1.4327473798802137	24.8647112464079960	-12.2013590165052648	-0.0000215971372096	-0.0000221886224930	0.0000132024282646
Mg	-0.8763511760727578	22.6905533358388354	-12.2978218423162655	0.0000071717955800	-0.0000522695623735	0.0000009009173428
Mg	1.8144582758439984	20.0479207672984003	-9.5662805276583356	-0.0000021770070384	-0.0000227843058061	0.0000232015528860
Mg	3.4723128248529789	20.2358092471164959	-11.9297476543223127	0.0000553052697833	-0.0000010960352829	-0.0000304615355096
Mg	-2.8451430845348646	20.2130253956455164	-12.0669853300443162	-0.0000427782951129	0.0000761294101255	0.0000212726177356
Mg	0.0717274873441234	24.0018474056210067	-9.7986577751229156	0.0000030731615213	0.0000143283179136	-0.0000114312208825
Mg	2.7598301032219070	22.7799981686547000	-10.4590125579879984	-0.0000181618238335	0.0000302733128557	0.0000079659035660
Mg	1.3470001127687563	22.3118831975874308	-7.8269837617933833	-0.0000295427194378	-0.0000011397257034	-0.0000022795554402
Mg	0.3171600931987988	19.9835206721067529	-12.1389042810113441	0.0000229747278040	0.0000052114546222	0.0000033887194030
Mg	1.8878088641091364	22.2288581994116718	-13.3034209809071449	0.0000126170738641	-0.0000022991633501	-0.0000240888567467
Mg	-0.9265710585726130	21.1975535929493475	-9.7395072644573393	0.0000131149540795	-0.0000241650805080	-0.0000016709706190
11
REF_energy=-253.1075796548969947 charge=1 Properties=species:S:1:pos:R:3:REF_forces:R:3
Mg	4.0288288055442978	24.2117055970250448	-10.3844532369125897	-0.0000204338128597	-0.0000492000215775	0.0000129953029919
Mg	-1.6121345470813913	23.5996766684549506	-12.2105444741556823	0.0000106369986928	-0.0000522177231715	0.0000774020922860
Mg	1.2063971514574590	19.8429200949147706	-10.0459982121038465	-0.0000504212408983	-0.0000422434839811	0.0000244264267895
Mg	2.9191909296505103	21.6670921589580807	-11.6436111498053059	0.0000664479814889	0.0000648970338081	0.0000212939670026
Mg	-1.5348880658253476	19.7212187141232960	-9.0047800332842272	0.0000382062472206	-0.0000185017060124	0.0000480237771174
Mg	1.0844289289468960	24.0878909458678230	-11.1635360841769007	0.0000083863630364	0.0000072840193069	-0.0000107681904624
Mg	2.0442856971541077	22.4038121644233890	-8.8529219781329775	0.0000059256488094	0.0000134050986542	-0.0000068848086138
Mg	-0.8248053509447272	22.5228820071838953	-9.5145379846716125	-0.0000264028306279	0.0000384627530134	-0.0000865361532841
Mg	-1.0375578054041021	20.6642146968445282	-11.8594800561465270	0.0000076271441765	0.0000481327431106	-0.0000510913727860
Mg	0.6923747964516755	22.3259439623784068	-13.6268847833518230	-0.0000307254186147	0.0000141028270558	-0.0000298013227558
Mg	1.4888592820902999	19.5083242184640007	-13.0219329993852124	-0.0000092470804240	-0.0000241215402065	0.0000009402817148
11
REF_energy=-253.0817784032787756 charge=1 Properties=species:S:1:pos:R:3:REF_forces:R:3
Mg	2.6711542711854821	21.5890543613792794	-13.1432035834253469	0.0000801250085548	-0.0000566568355170	0.0001013303767003
Mg	-1.9446856594525923	22.1592006678594338	-11.0576499887769053	0.0000843192686623	-0.0000735880359298	0.0000539273395616
Mg	-0.4474694181604900	19.9413955910103731	-10.0263762002901853	-0.0001515917093687	0.0000033935848819	-0.0002016291731910
Mg	-0.7442571836415373	25.2126374352892242	-10.6268812454691783	0.0000472862498532	-0.0000667490392264	0.0000625628698701
Mg	0.2315152506200510	23.0741556383278521	-12.6756339208669768	-0.0002028564648827	-0.0000037170934031	0.0000295712179004
Mg	2.3751546094904201	24.3439585298676988	-11.2668332746806108	0.0000147944517115	-0.0000681451456464	-0.0000027641383121
Mg	1.8349652195627373	20.3298269648306480	-8.2431702326422975	-0.0000177108774438	-0.0001235274369910	0.0002173199182116
Mg	0.5727228955318839	22.7029473952271381	-9.5032054221064719	-0.0000357631251023	0.0002612069053849	-0.0001536781918878
Mg	3.3520497946271317	21.8613922952823110	-10.2160574899442853	0.0001417775731836	0.0000959907848508	-0.0001058940351440
Mg	-0.0564044302500341	20.2134821098484530	-13.0069865216850094	0.0000475963529803	0.0000041015787106	0.0000977681423462
Mg	2.1874704615629956	19.3378576956582506	-11.2293240398244034	-0.0000079767281483	0.0000276907328855	-0.0000985143260553
11
REF_energy=-253.0799716555015948 charge=1 Properties=species:S:1:pos:R:3:REF_forces:R:3
Mg	-22.9663574548936964	40.9997426282893045	19.9991501643237193	0.0000503248282009	-0.0000977638073198	-0.0000018743382203
Mg	-20.4600637353866439	39.3786347194385016	19.1625427049875441	-0.0000426915293831	-0.0000646722506788	0.0000778615051643
Mg	-22.3893809995351631	40.3917825934516372	17.1617134982072166	-0.0000313029081255	0.0000109658810608	-0.0000453508257649
Mg	-21.9882107459833129	43.1696324659440691	18.2553929180109975	0.0000228602005266	0.0000468679945596	-0.0000043659983057
Mg	-21.6616708766208497	41.4262513581061640	22.6110078182157750	-0.0000487187688855	0.0000265956456044	0.0000474684645789
Mg	-19.7709756004124415	42.7375600333502419	20.4553824341192296	0.0000341430858935	0.0000339854715223	0.0000014368855951
Mg	-22.3946040957339640	43.8186262915006424	21.0846011230865038	-0.0000214690976813	0.0000193822109896	0.0000050077909143
Mg	-17.7771644509019211	40.8300152639335892	19.5425779122219865	-0.0000115361580578	-0.0000010939116271	0.0000352773789997
Mg	-22.0616121243395007	38.6401902141145754	21.5378494165361190	0.0000433945787806	0.0000416445898915	-0.0000050708923185
Mg	-19.3588012655916586	39.9358709093575754	21.8425645724337620	0.0000019344472943	-0.0000269102294411	-0.0001003280609327
Mg	-19.6851825020935962	41.6798123296549932	17.4863309732701744	0.0000030613214373	0.0000109984054386	-0.0000100619097101
11
REF_energy=-253.0786310588269430 charge=1 Properties=species:S:1:pos:R:3:REF_forces:R:3
Mg	-12.6040386204316874	12.3892470653195108	22.2241749018982766	0.0000151573838806	0.0000750057580363	-0.0001303924007114
Mg	-15.0407853054582148	9.9556665423947255	18.4363342315144685	-0.0001657525234994	-0.0001452530896377	-0.0000772182047214
Mg	-13.6847183656169857	9.6853127533537506	21.0478845444912608	-0.0000288993855203	-0.0000206346632070	-0.0000062081189516
Mg	-14.8056388084778749	12.2369482969834991	20.2779136942031322	0.0000615627760494	0.0001051526788625	0.0001696396334590
Mg	-9.2884997342762254	10.9717028492521411	18.5350385367475496	0.0000757684724878	-0.0000193040843245	0.0000121911069429
Mg	-13.8575012083674824	12.6850213638260580	17.5420997634416587	0.0001512599224241	0.0000064550927730	-0.0000514525818056
Mg	-10.8346642388986414	10.1319693611713557	21.0958195622659161	0.0000290209770449	0.0000196970796124	0.0000048827811450
Mg	-11.0196520673072342	13.1952546184426946	17.6453562782720965	-0.0001069999513938	-0.0000372229661380	-0.0000231310761221
Mg	-12.1780155762059650	10.5330791818473770	18.5471864559623008	0.0000200931661810	0.0000884087118680	-0.0000547884732423
Mg	-10.3409866468376936	12.9455127566785269	20.4448773075854895	-0.0000254447696796	0.0000203263853339	0.0000821151072735
Mg	-12.8479564387328633	14.3876360284065363	19.9041292788105153	-0.0000257660679747	-0.0000926309031790	0.0000743622267341
11
REF_energy=-253.0766050330650785 charge=1 Properties=species:S:1:pos:R:3:REF_forces:R:3
Mg	2.0408472773448199	-2.4277194787993759	0.4958175911231782	-0.0000924452733029	-0.0000582250070729	-0.0000877648738176
Mg	0.6973230884721492	-0.8019729183141043	-1.6718984905972252	0.0000142845541289	-0.0000758904017498	0.0000367658825050
Mg	2.9760192791117746	1.0403182846567038	-2.8136511746277892	-0.0000152353805151	0.0000016569870913	-0.0000196372758209
Mg	0.7883081133200689	2.0903890830488074	-1.1537693697259275	0.0000183096064360	0.0000408544771802	-0.0000096641567443
Mg	4.0201879390434625	-2.2726526369639219	-1.7423111281645232	0.0000063282064348	-0.0000020150540286	-0.0000614249777102
Mg	1.3535756459544508	-3.5886098174006222	-2.1293335986715518	-0.0000389628973488	0.0000588878177652	0.0000385960403528
Mg	5.4291382806805348	0.3094650424883995	-1.2030028240127026	0.0000273823350855	0.0000326856224995	-0.0000332891803346
Mg	2.3036938121119155	-1.6116671756265775	-4.1030996002881404	-0.0000137949337995	-0.0000544071208837	0.0000629857628612
Mg	4.7783376415588883	-1.4802923744299978	1.0507244115044090	0.0000731636713951	0.0000091946988955	0.0000005732065988
Mg	2.7984043902180522	0.4920484097773806	0.2777778103893457	-0.0000250596901047	0.0000126017728482	-0.0000051753797817
Mg	5.0670526246615770	-0.5864438423745378	-3.9917525241068650	0.0000460298015906	0.0000346562074553	0.0000780349518917
11
REF_energy=-253.0741802562274074 charge=1 Properties=species:S:1:pos:R:3:REF_forces:R:3
Mg	2.1949871077300966	22.7092540411514889	-12.0325819108212180	0.0000120999349108	-0.0000028177577402	-0.0000029825286245
Mg	-1.2447004943896933	22.2683273029396496	-9.3577508051418690	-0.0000127351189372	-0.0000133443259493	0.0000021052446703
Mg	0.3781145070690987	19.6053413904906577	-9.6080285119538775	-0.0000321405763410	-0.0000028269307307	-0.0000060898877634
Mg	3.5313493460606620	24.4497016003879892	-9.9344677333028670	-0.0000063266839895	0.0000053447053739	-0.0000405052808497
Mg	-1.9821151935744612	20.2297106952574275	-11.3263562888050409	0.0000091551524431	-0.0000026389230487	-0.0000276244691797
Mg	-0.8711196691385470	22.7973942606948654	-12.2997940415335236	0.0000171791660525	0.0000048434571162	0.0000122435990106
Mg	1.7306677665320531	22.1660415619527562	-9.0501524161146278	-0.0000007215472643	0.0000227247376189	0.0000023620066727
Mg	0.4571017813182474	24.5261502476333959	-10.3246378167043034	0.0000172747434786	-0.0000164925297074	0.0000229899731664
Mg	0.7966102937663304	20.1161303824466948	-12.5342596828346142	0.0000240410649008	0.0000170081789958	0.0000012930762715
Mg	0.8637617937641955	22.2355862009508485	-14.6063803108642105	-0.0000341847092482	-0.0000021563594767	0.0000133180690308
Mg	3.1279016630559022	20.1525961568034688	-10.7078079635181549	0.0000063585739943	-0.0000096442524518	0.0000228901975951
11
REF_energy=-253.0663302199800455 charge=1 Properties=species:S:1:pos:R:3:REF_forces:R:3
Mg	1.4467534388762082	17.5382441794154467	-16.1249777900199334	-0.0000303615140448	-0.0000082029005456	-0.0000526664364024
Mg	1.6816061044959822	22.1058032551323755	-14.4286711769324363	-0.0000338442114311	0.0000017538055126	0.0000426759635937
Mg	-0.8032743790134705	21.8624758610667875	-16.1368392577786928	0.0000024881677139	0.0000234704323839	-0.0000436351876786
Mg	-1.3444568542243318	17.2063800301967902	-14.9916428193809388	-0.0000386884633677	0.0000168662251446	-0.0000209506758548
Mg	-0.0318959810768781	21.1751632345639358	-18.9802228546805765	0.0000467357427999	-0.0000672317192695	0.0000419584910014
Mg	-0.9860952562601394	19.0443556942830483	-17.2223774409981907	0.0000330709807433	-0.0000270875437322	-0.0000375034553159
Mg	3.1595209212436441	19.3912808977587687	-14.4369074089686613	-0.0000888729605349	0.0000201743458279	0.0000181250234680
Mg	-2.9027807302363486	19.9303543085728236	-14.9024548776658161	0.0000768560991835	-0.0000191170710074	0.0000919761963314
Mg	1.9544144731057091	20.4736421318533637	-16.9039266753409194	-0.0000507711092291	-0.0000393435385155	-0.0000749241753609
Mg	0.1080405999213326	19.6367859286239970	-14.2874551443573719	0.0000525761979067	0.0000500935587088	0.0000514182772559
Mg	1.4733102279794470	18.4645297268159148	-19.0301141717757254	0.0000308110702604	0.0000486244054925	-0.0000164740210380
11
REF_energy=-253.0502729229147008 charge=1 Properties=species:S:1:pos:R:3:REF_forces:R:3
Mg	-11.6539953356138177	14.3414535496194677	17.9283368983585767	0.0000394038679096	0.0000655746897517	-0.0001653402281932
Mg	-11.8003557058010262	13.7408667061975436	20.7667326722833749	-0.0000227772385112	0.0000506325798579	-0.0000792002110360
Mg	-12.5208381493368233	11.2672724212833462	22.1359990222453362	-0.0000460732360790	-0.0000918986093222	0.0000033696314746
Mg	-11.5204116045844458	9.2206093687885549	20.2981900151553774	-0.0000487275136755	-0.0001330885573470	0.0000866335736259
Mg	-9.6912940718129139	11.5523030213700864	21.3514529404533775	0.0001194373526935	0.0000186894853784	0.0000064928847673
Mg	-10.7809549793015425	11.6048566422931074	18.7011710939308564	-0.0001474938244895	-0.0001020701506733	-0.0000736383387221
Mg	-13.0416024238883139	9.6808104806399591	17.8021586944030474	0.0000451829690624	0.0001142750030777	0.0000872182602054
Mg	-12.3638564695537330	12.0187831892137016	16.2401083335718255	0.0001285241555847	0.0002610901839549	0.0000510463829081
Mg	-14.5150161232453296	10.1112847598309337	20.3319958178295224	-0.0000079261972007	-0.0000950484370374	0.0001338530037274
Mg	-14.7501067225214584	13.0573004756773727	21.4085723800206580	-0.0000324273475005	0.0000385182115532	-0.0000050021633276
Mg	-13.8640254249460604	12.5218102027625253	18.7360966869389571	-0.0000271229877936	-0.0001266743991940	-0.0000454327954298
11
REF_energy=-253.0309156839261959 charge=1 Properties=species:S:1:pos:R:3:REF_forces:R:3
Mg	4.8595546557784610	20.1937126698561507	-12.4399157429297880	0.0000327500869816	0.0000866035153299	-0.0000837758923326
Mg	1.9672330677771552	24.1500694931232189	-11.7770311332171786	0.0000059608370790	-0.0000337724782755	-0.0000228839561744
Mg	3.3578634523014612	21.8809144463468002	-10.4540469793168871	0.0000549199054236	-0.0000473479379582	0.0000210169162562
Mg	1.8143842772567962	19.4849064688246898	-11.2902408501827551	0.0000398588687002	-0.0000198154244237	0.0000529732701776
Mg	-0.6891856311651473	21.0780496972695808	-10.5459190310699977	-0.0000347065524157	0.0000006176586474	-0.0000388352987871
Mg	1.3220031293560714	20.2537906736837741	-8.5312716862518414	-0.0000885815675637	0.0000097481955859	0.0000512116453846
Mg	2.3494831642093601	21.6182877256980248	-13.2863585320015734	-0.0000227006167810	0.0000040555635765	0.0000145953241686
Mg	-0.3485171988195290	22.7166699076003660	-13.1176802262637935	-0.0000285456199824	-0.0000174243692641	-0.0000029255642985
Mg	1.0931008706482690	23.0921528580790323	-9.0690687081243588	-0.0000223485297336	-0.0000099033079091	-0.0000066715029045
Mg	-0.9706030829911730	24.2470413067668318	-10.7397040059198758	0.0000677478866082	0.0000131957234402	0.0000050293742338
Mg	-0.3439474284438727	19.8201703951406145	-13.2070871643744479	-0.0000043546983163	0.0000140428612504	0.0000102656842763
11
REF_energy=-252.9840874623955642 charge=1 Properties=species:S:1:pos:R:3:REF_forces:R:3
Mg	2.3529716245053551	2.2999016877604594	0.0249092253601542	0.0000136088757353	0.0000411863599492	0.0000314207666992
Mg	5.0311819174676620	-1.4037251970215538	-1.8446785979162128	-0.0000343056185115	-0.0000415046870040	0.0000338053692964
Mg	2.2069759540829574	-1.7936221573969020	-3.2078264232364027	-0.0000637482566289	0.0001075627615943	-0.0000246702600043
Mg	2.9564464051516213	-2.8834657787808342	0.0241087370096983	0.0000727042635406	0.0000561756165197	-0.0000053836811059
Mg	4.2217158892071547	-0.3222868189275332	1.3756143567270316	-0.0000305531911183	-0.0000236601038247	-0.0000122457490268
Mg	0.3131061757124562	0.8251291436984612	-1.8857443854759259	-0.0000189778072845	-0.0000168396803657	0.0000063959220339
Mg	5.2073082673954350	1.5357825575882265	-0.8941113022699572	-0.0000019849700129	-0.0000064492249434	0.0000162080109185
Mg	2.6632723553098727	-0.2906595615643005	-0.9201989630777487	0.0000756776527338	-0.0000967477082326	-0.0000277251112139
Mg	3.1622665325263370	1.2185966459017079	-3.1948171057881325	0.0000106524380182	-0.0000159772658767	-0.0000125405513358
Mg	0.1195224822984494	-2.1168460059845691	-0.9463526666447564	0.0000339590520804	-0.0000729937865306	0.0000386623743033
Mg	1.0622267853221055	-0.2642243373647232	1.3461352606905239	-0.0000570324385523	0.0000692477187146	-0.0000439270905646
11
REF_energy=-252.9300452308544891 charge=1 Properties=species:S:1:pos:R:3:REF_forces:R:3
Mg	-1.7415178429036995	20.9632032553974845	-9.3373676184643379	-0.0000137321563324	0.0000088188181884	0.0000053949822906
Mg	-0.8516731979878974	21.5522111665756633	-12.0762901027401117	-0.0000055095298080	-0.0000610219518936	0.0000922729008504
Mg	0.9831466593266718	20.2733141698097299	-10.0371190116645312	-0.0000141258777629	-0.0000637488924571	-0.0000694294181745
Mg	0.5434596159165219	21.8602887878574350	-7.5354811427536346	0.0000372232274170	-0.0000346625939647	0.0000453763976681
Mg	1.4852918789818890	19.7639049279967693	-12.8254355396304440	-0.0000700155839874	0.0000136543145935	-0.0000141556331614
Mg	-0.1220757495605140	24.5409571116756773	-12.6746153286135215	-0.0000051171484103	0.0000136919237316	-0.0000336551826041
Mg	2.8946620612544249	22.9952516639300377	-9.2054410145417478	0.0000234248285462	0.0000415271561995	-0.0000451756146343
Mg	0.0010372113248960	23.4769676956015694	-9.9444827174027353	-0.0000401943055291	0.0000408493125149	-0.0000173428495539
Mg	3.7555229400279706	20.6470670733808319	-10.9670717088137586	-0.0000177819210473	0.0000225497826772	0.0000315746569241
Mg	2.1731990420000020	22.9051581257155235	-11.9938086984784498	0.0000428218746017	0.0000205828400064	0.0000853142892874
Mg	0.6791833250868881	22.2481287036763362	-14.5084806762144289	0.0000630065923125	-0.0000022407095961	-0.0000801745288924
11
REF_energy=-252.9247845880511250 charge=1 Properties=species:S:1:pos:R:3:REF_forces:R:3
Mg	3.9918984210811743	19.4314987874068308	-11.8250629728446857	-0.0000359980708639	-0.0000640597981947	0.0000866581856156
Mg	0.5084315074927991	20.3157934758573582	-8.5874244207267143	-0.0000177139625204	0.0000119824716815	-0.0000506039455830
Mg	-0.1165905038617156	22.9935504568328284	-12.7924718431908921	-0.0000251895514807	0.0000535548512475	0.0000371049559663
Mg	2.4659157419076236	24.0150099625389863	-11.6878721480129393	0.0000632006411856	0.0001082085340891	-0.0000340160664903
Mg	2.2559422453255333	21.4250283769421337	-13.1650626253429497	-0.0000319765608192	-0.0000508064846026	-0.0000641882371990
Mg	0.4278517758657716	23.0841598114599087	-9.7101353893241154	-0.0001379332719811	0.0000888881094284	-0.0000580740454394
Mg	1.0808455556439609	19.2028752508650733	-11.3012876212783961	-0.0000249658085781	0.0000287243230537	0.0000266178155764
Mg	-2.2695171769857705	23.5714699325498636	-10.8400572484923163	0.0000350907582050	-0.0001341070330786	0.0000834277851663
Mg	2.8007689802154379	21.5152837508268142	-10.0840278116982880	0.0000783944386271	-0.0000770194325630	0.0000015945321060
Mg	-1.2931535528245599	20.7716584086178209	-10.9277844776349795	0.0000486746467770	0.0000095006559589	0.0000900182773701
Mg	-0.3981700745702971	20.1643382963479318	-13.7136326091047547	0.0000484167414488	0.0000251338029797	-0.0001185392570890
11
REF_energy=-252.8898927602898823 charge=1 Properties=species:S:1:pos:R:3:REF_forces:R:3
Mg	0.7889025436945377	24.0590428462019332	-10.0318004221303774	-0.0000205218538406	-0.0000068021059792	-0.0000066032723768
Mg	1.2256351287164460	23.1939147399012029	-12.8398146456448146	-0.0000056473629374	0.0000007135306618	-0.0000353279322529
Mg	3.1667793141449474	20.0218239894335177	-10.5171638177090063	0.0000287763955644	0.0000322966653639	0.0000563735034411
Mg	2.9859005960968363	20.9513873315347681	-13.2356657596493008	-0.0000285877962770	0.0000012885528872	0.0000095211672511
Mg	0.7414987273592767	19.1485183542299389	-9.2354860822025966	-0.0000128352681852	0.0000013883599154	0.0000048380736460
Mg	-0.7430152507103486	21.6124843772274779	-9.3306364207197756	0.0000130985452142	-0.0000365365599376	0.0000091410075535
Mg	3.4557741360215513	22.9678793265007783	-10.8755278386978738	0.0000006836649028	-0.0000512554679838	0.0000088948689489
Mg	2.0894993630917065	21.8704080470558004	-8.4402141846688323	0.0000079303557324	0.0000111864733519	-0.0000095226615018
Mg	0.3601240533740549	20.3730050846441664	-11.9335599635812493	0.0000134817545715	0.0000385594546078	-0.0000417467764739
Mg	-1.4668723505360912	22.7985351124036022	-11.8654134017697572	0.0000223278232526	-0.0000111766775704	-0.0000144586859938
Mg	-4.1492464392136119	23.5586820195030668	-13.0233984553536679	-0.0000187062579977	0.0000203377746830	0.0000188907077586
11
REF_energy=-252.8860647684482501 charge=1 Properties=species:S:1:pos:R:3:REF_forces:R:3
Mg	-19.9530180032434217	39.7162854584438065	20.0644949861007191	-0.0000450386685050	-0.0000079130043781	0.0000392043770789
Mg	-20.5741129992757728	44.6617276117938999	21.4806100308762460	-0.0000070803592466	0.0000288571733876	0.0000045888156682
Mg	-17.5513265450106388	40.3115706272949410	21.5009729721649876	-0.0000206641110461	0.0000191489799187	0.0000386675104297
Mg	-17.9984444868570108	40.5083032001577266	24.5912452403408643	0.0000280201179029	0.0000129456881999	-0.0000333343163965
Mg	-22.7613054991750126	39.8338198302765676	21.5430426604993919	0.0000113179357130	0.0000211522098062	-0.0000220347570108
Mg	-21.6363034984342377	42.2640367774614916	20.3609166437321889	-0.0000447082592577	-0.0000247228047300	0.0000346264496610
Mg	-21.9939580064246520	42.2567731006485658	23.3464092499616847	-0.0000055817960618	-0.0000065438382413	-0.0000039857562681
Mg	-18.7581941930813549	42.5120947365631210	19.6547255023520968	0.0000004127703215	-0.0000418923847075	-0.0000359859610273
Mg	-20.3098829727847345	39.7163579372311375	23.0247880481464442	0.0000277483238668	0.0000004302585909	0.0000134930632130
Mg	-19.1144796301267625	42.5059754215776380	22.6420061198135834	-0.0000054104573146	-0.0000456969955871	-0.0000097206073571
Mg	-22.3214854523347164	40.0682180033181794	18.4369931496438753	0.0000609845036277	0.0000442347177407	-0.0000255188179910
11
REF_energy=-252.8776844906050201 charge=1 Properties=species:S:1:pos:R:3:REF_forces:R:3
Mg	-0.2678425341502370	22.1794086412152573	-13.5533656850969368	0.0000304104753920	0.0000429468091101	0.0000766195380606
Mg	0.2423202943093014	22.0277650872433846	-8.8216523559908548	-0.0000802574360212	-0.0000039961023824	-0.0000378705052896
Mg	2.4910395730302897	22.3220483109442078	-12.6369498585875988	-0.0000572327277097	-0.0001137190530379	-0.0001317194728576
Mg	-1.4619391287465224	19.6990087468356663	-12.5875026648201462	-0.0001695622611503	-0.0001448040328021	-0.0001409204882777
Mg	4.6789288886708231	25.0803349912569651	-8.5601428241370225	-0.0000276648950409	-0.0000898252024036	0.0001199616844851
Mg	2.6629650109545713	23.3096631084851680	-9.8778329024290326	0.0000978813744928	0.0002282960411813	0.0000122117928906
Mg	1.4499237191040446	19.6059383409656753	-12.7393000592732903	0.0001437186225102	0.0001191805996832	0.0000296265242365
Mg	2.5581938319076536	20.3899673866690385	-10.1646527379459268	-0.0001135832465271	-0.0001594078849310	-0.0000689333929891
Mg	0.1750518239344839	23.9600017872693591	-11.2939057191673307	-0.0001527169831641	-0.0001303136688117	-0.0001076347740094
Mg	-0.1710693576327407	19.3938905312629934	-9.9892551415251631	0.0002002034358103	0.0000354778398525	0.0001515713450307
Mg	-1.8888366227530884	21.9671892180271335	-10.8031838821446886	0.0001288036414081	0.0002161646545416	0.0000970877487200
11
REF_energy=-252.8515789404637815 charge=1 Properties=species:S:1:pos:R:3:REF_forces:R:3
Mg	-13.6399334710052376	8.6130295415327716	17.4506735474336132	-0.0000291835987622	0.0000614583296096	-0.0000114502387395
Mg	-16.4480399020127237	7.8255767624633794	17.3862699330198680	-0.0000438427749060	-0.0000257186667741	0.0000382738607583
Mg	-13.1211068146046834	11.2245235459184816	18.7553382169376519	-0.0000216488383439	0.0000400656743900	-0.0000071250646400
Mg	-12.5196387370323166	8.8990282121974094	20.8127047689512956	-0.0000438976744100	0.0000248964630332	0.0000674461073212
Mg	-15.7855996583990930	12.5198545629727072	18.9428055919395888	0.0000747366773223	-0.0000508000941809	-0.0000073205937091
Mg	-14.8830667373063488	8.3509603655471913	22.3567289913697920	0.0000032993605644	-0.0000338740379235	-0.0000669670495884
Mg	-15.6935254756499738	9.5955271286298700	19.5862570723603966	0.0000333924657893	0.0000156228429542	0.0000287956610657
Mg	-11.9011346240198908	6.5958567671730872	19.0227124443849007	0.0000177589612660	-0.0000072960106556	0.0000538740151913
Mg	-10.8918991612227138	9.3277624273429485	18.3867073644490482	-0.0000369887508816	-0.0000142605945159	-0.0000110269597621
Mg	-14.8195040025909215	6.8064759659173086	19.7761815102980556	0.0000317553101301	-0.0000252638256691	-0.0000582872105276
Mg	-14.2692367185630609	11.2516024315437893	21.5329706522445790	0.0000146188622316	0.0000151699197321	-0.0000262125273698
11
REF_energy=-252.8360760536106966 charge=1 Properties=species:S:1:pos:R:3:REF_forces:R:3
Mg	0.2236831908697726	22.9283704378203126	-8.6296270904780084	-0.0000704913938182	0.0000002857917536	0.0000187604196184
Mg	-2.8602952651353846	22.8780541239444197	-8.5375399353117150	0.0000374518111760	0.0000007835778739	0.0000384547366549
Mg	3.0574663573481193	21.0131150766023787	-12.9652221861415455	0.0000819041656949	-0.0000381671951915	-0.0000265349268379
Mg	2.8656813788118622	22.3542126831508128	-10.0232012330092690	0.0000084131743786	0.0000615648752479	-0.0000828057045682
Mg	0.6630799248689617	20.2085445932038361	-9.4375541535492360	-0.0000999511467600	-0.0000473880101994	0.0000220183655550
Mg	0.5694701586622085	24.1107497267995150	-11.2228881726588821	0.0001375055947686	0.0000245715017587	-0.0000997557062113
Mg	0.3976376296123454	22.3046742361262993	-13.6120135134194058	0.0000677463382088	0.0001376691262903	0.0000010249421836
Mg	3.1342237183967465	19.3998906390532078	-10.5877600022298850	0.0000731680948387	0.0000044127137721	-0.0000073930120937
Mg	-1.2147889360345376	21.7463467005084041	-11.1375336164563432	-0.0000926749540457	-0.0000322278201088	0.0000400512078432
Mg	3.0267233223348731	23.8669815966377818	-12.6318699058822297	-0.0001079549984448	0.0000001109506577	0.0000658610804633
Mg	0.4636525170673004	19.5741384460064261	-12.3628292719062589	-0.0000351166859968	-0.0001116155118545	0.0000303185973926
11
REF_energy=-252.8077101902240713 charge=1 Properties=species:S:1:pos:R:3:REF_forces:R:3
Mg	5.3105566979025092	24.4815222762703186	-11.0299318889384335	-0.0000270547363336	-0.0000046782040022	-0.0000274028364420
Mg	0.6895149562404366	23.8942572532991910	-13.1233313210735982	0.0000122409086653	0.0000202442395286	0.0000172187115322
Mg	2.8884825062602131	19.9872048179744297	-11.1233342193786857	0.0000315085099556	0.0000141934097308	0.0000018276670183
Mg	2.7305682972452665	22.8949340791740816	-11.2945085881018237	0.0000209918441698	-0.0000084549082190	0.0000065810891045
Mg	-1.4490951098979463	21.5545660449968786	-9.3175315534240415	0.0000152489911291	-0.0000520674313630	-0.0000002708486140
Mg	0.1848771263914148	23.9552851433313734	-10.0841062563049579	0.0000106394870721	0.0000184099582509	-0.0000013903312391
Mg	1.5206168956307509	21.5819784933204275	-8.8692362089608903	-0.0000034126628294	-0.0000101817290679	-0.0000080147743773
Mg	-1.7360356026899135	22.7721638157646922	-12.0375614607856409	-0.0000095500000221	0.0000105954209595	-0.0000320369868235
Mg	-2.0566253056938679	19.9017561553398323	-11.8782999436268906	0.0000148842666212	-0.0000107077883977	0.0000142943100572
Mg	0.6445361295180818	20.9594862998189946	-12.7818793958280086	0.0000080500356673	0.0000045375916045	0.0000215800023283
Mg	0.2399621401936403	19.2612955272878530	-10.2403520245536530	-0.0000735466440954	0.0000181094409754	0.0000076139974554
11
REF_energy=-252.8071777604306760 charge=1 Properties=species:S:1:pos:R:3:REF_forces:R:3
Mg	-12.1699953533249570	7.7945656643646686	17.4078829581620091	0.0000130170237074	0.0000108955985016	0.0000081592897451
Mg	-15.4729837690942098	10.0487502352500311	20.4387420505418511	0.0000083169981282	-0.0000171128425913	-0.0000483378667303
Mg	-14.4080334585399132	12.1059824906583362	18.6153248467402719	-0.0000140016370399	-0.0000028881448359	-0.0000117239213548
Mg	-12.1281551118117861	8.6936856528007898	24.6393615362295826	-0.0000229185758785	0.0000710883544532	-0.0000240703628302
Mg	-16.4372306514470914	10.2234674836339376	17.5509292488120465	-0.0000242685914155	0.0000368457751997	0.0000123631813997
Mg	-13.9995807401453352	7.2146117452271605	19.6458632750107078	-0.0000138972467630	-0.0000296609668822	0.0000499803350376
Mg	-12.3910923775628632	10.0611331542301095	19.2803171273768470	-0.0000177166492831	0.0000114797590930	-0.0000089251963644
Mg	-16.8548211889697086	7.7744361903424810	19.1700560686532171	-0.0000098832336723	0.0000150473645714	0.0000208469824158
Mg	-13.5689094234831096	10.2359214713560753	16.4724588026631515	0.0000014006471036	-0.0000049129710082	0.0000001888508390
Mg	-13.1805920115298214	8.9361278322846509	21.8475978025769564	0.0000515440507200	-0.0001360506225538	0.0000146754784805
Mg	-15.0669235174453124	7.5833642305647375	16.8124155420509922	0.0000284072143931	0.0000452686960527	-0.0000131567706380
11