11
REF_energy=-259.5266501841372815 charge=-1 Properties=species:S:1:pos:R:3:REF_forces:R:3
Mg	-17.8674984963479062	44.8551231948864242	21.4321633782830716	0.0000340168983347	0.0000269060073784	-0.0000397854518043
Mg	-21.8246492236443643	41.9384374577597541	21.7375435098746337	-0.0000110085133065	-0.0000405667891886	0.0000726816398806
Mg	-23.9112046563582012	40.4470498778993175	20.3185159481914752	-0.0000244174023151	0.0000553346750499	-0.0000274385756540
Mg	-20.0656386052402773	43.4572865013741207	19.9622127866580179	-0.0000298216369372	0.0000450359023391	0.0000094794949069
Mg	-20.1013071494376092	39.6988945460604512	23.2204525137049806	0.0000209022847364	0.0000238564546698	-0.0000070439925561
Mg	-23.0737421506267779	39.5335876974637230	23.0177264230694938	-0.0000448798625709	-0.0000233497713818	-0.0000097464300082
Mg	-21.4914398327262823	38.5597838820850711	20.7905594700838066	0.0000348284864440	0.0000111354610848	-0.0000039677990166
Mg	-21.4471115897580944	41.0325662652300096	18.7997375542991350	-0.0000037659040522	-0.0000525567648408	-0.0000247832074717
Mg	-19.1567685181290912	42.5972876475453432	22.8937642561710923	0.0000144871205643	-0.0000227373183844	-0.0000082713254257
Mg	-19.6424760928808766	38.6405597802972594	18.5919638236930282	0.0000218164010091	0.0000144709469165	0.0000027945878363
Mg	-19.0476159478847258	40.5988693824032438	20.6581517825950449	-0.0000121578719065	-0.0000375288036429	0.0000360810593128
11
REF_energy=-256.1185710221250247 charge=0 Properties=species:S:1:pos:R:3:REF_forces:R:3
Mg	-13.4767870637254283	13.5564553246916208	19.2466447722008205	0.0001037920119028	0.0000117917957111	-0.0000304756574679
Mg	-11.1259792788094085	15.3707314799901305	19.5609343018848989	-0.0000116134063283	-0.0000233489907241	-0.0001915263511851
Mg	-13.6756643360107883	16.4348801454413618	18.4337985485411409	-0.0001480069909677	-0.0002165511551614	0.0000575053160161
Mg	-15.8419418081080696	8.8322267987625569	21.4230334211844919	-0.0000674270972547	-0.0000003777575624	0.0000429074765663
Mg	-18.1877575190951397	10.7951985233449452	20.6888572911477873	0.0001642291897781	-0.0000213293869839	-0.0001802085024191
Mg	-15.3693270812164808	11.7447432330441490	20.6545607264309155	0.0003090857595470	0.0000570913295756	0.0000148043093397
Mg	-18.4102571316443502	8.3513936133649178	23.0001711915884677	-0.0000077026199487	-0.0001390435654996	0.0000009626966656
Mg	-16.7109412691862289	11.1150282967463383	23.2461677029725280	0.0000407175756404	0.0000680175274030	0.0001650236862498
Mg	-12.0225527629750886	14.5308121090678437	16.8366871703541534	-0.0001373087217113	0.0001330404045955	0.0001468854305598
Mg	-15.8510487229590478	7.9748928313048557	24.4776236911439646	-0.0001422455670100	0.0000138845576622	0.0000338128922303
Mg	-16.6422509714217455	6.0279175542194068	22.3484617838234314	-0.0001035201336475	0.0001168252409840	-0.0000596912965555
11
REF_energy=-259.7369013135656814 charge=-1 Properties=species:S:1:pos:R:3:REF_forces:R:3
Mg	2.0903148083124319	21.4029495823946831	-12.7749467984953657	-0.0000107163446022	0.0000362473778156	0.0000019339987640
Mg	-1.7550553521957672	22.5093324405700059	-11.4992459556954127	-0.0000258238699011	-0.0000135313438184	0.0000006546667667
Mg	2.2514247239341345	22.1316712210613993	-9.9177006854348946	-0.0000128858964424	-0.0000229590943023	-0.0000293760622484
Mg	3.9320730155981378	23.7395219972033829	-11.9240321266397107	0.0000202689095719	-0.0000528931843459	0.0000138898707070
Mg	-0.5901319120611003	20.5812764531375585	-9.5527681457813767	0.0000443369684932	0.0000112942777393	-0.0000403354021409
Mg	1.5271324006938451	20.7430080807543540	-7.2424610160959055	0.0000047670529814	0.0000267769919083	0.0000765097265175
Mg	0.8450227700024354	23.9120239645069930	-11.8082801718990726	0.0000169478984389	0.0000176590873273	-0.0000067564291484
Mg	-0.2614604605786810	23.4344443503792519	-9.0891451440370119	-0.0000388868320312	0.0000175132870834	0.0000088289428715
Mg	1.7796511328431392	19.3203465920396056	-10.6743237239610966	0.0000312977186017	0.0000164550281778	-0.0000479283506026
Mg	-0.5054277354148485	19.9911176515108160	-12.4695005812295197	-0.0000384513353086	-0.0000374894002514	-0.0000163591254061
Mg	-0.4311244351559421	22.4740367145130016	-14.2610354742999270	0.0000091457301983	0.0000009269726663	0.0000389381639199
11
REF_energy=-244.3073237267807372 charge=2 Properties=species:S:1:pos:R:3:REF_forces:R:3
Mg	1.0347161247685788	20.3024703693337010	-9.2539948031474566	0.0001407278511515	0.0000719550458159	-0.0000349348053695
Mg	3.8717735338766595	22.3490691759712838	-9.6787740075250888	-0.0000879080185520	-0.0001871435815802	-0.0001728453761142
Mg	1.2129724861892577	22.7179932675487208	-11.1404135577023151	0.0001563484324715	0.0000829115783199	-0.0000818582231269
Mg	-1.4812376586045666	21.9036032802992651	-9.9038040883626604	-0.0001707267225181	0.0000594165646320	-0.0001182387424564
Mg	2.5320897905067281	18.4779234512899890	-13.8923074665337012	0.0000179302629461	-0.0001696542148148	0.0000086787365399
Mg	2.6201100824413976	25.1565802395288429	-9.9734390998394371	-0.0000881093931774	0.0000723954140776	0.0001238114970358
Mg	-0.4004565176219534	24.8016029203624342	-9.4543009403353615	-0.0000436454745716	0.0001010683404595	0.0001271939677356
Mg	-0.5050154148057331	18.0260894768013635	-14.1727259541366006	-0.0000913517905461	-0.0001372417752764	0.0001276841314600
Mg	1.5757142879182888	23.2495453001943844	-7.8980639587553778	0.0001198268981989	-0.0001788962436574	0.0000967269524217
Mg	2.9656379551720247	20.1352289022261424	-11.4786752630712634	0.0001086802514499	0.0003190705039914	0.0002030809017484
Mg	-0.1089434030874265	20.1585665404638057	-12.0740866788811836	-0.0000617722968527	-0.0000338816319675	-0.0002792990398743
11
REF_energy=-243.9962082411414883 charge=2 Properties=species:S:1:pos:R:3:REF_forces:R:3
Mg	-1.3665539206871573	22.3848507198606690	-9.2527538621805974	0.0000768410121857	-0.0000114934568445	0.0001466476264215
Mg	1.1484534971117586	22.6208699113583762	-11.1149972098121470	-0.0000408286339389	-0.0001042013296774	0.0000018908605837
Mg	1.4135292372295278	19.7949851267733585	-12.6990820046152635	0.0000030453015949	0.0001904322751185	-0.0000724801359338
Mg	4.0298008342759966	23.4753549961911681	-10.8405160971357741	0.0000502147262026	-0.0000063667358650	0.0000947096931364
Mg	3.4078078953596784	20.4073321003046715	-10.6448813062539056	-0.0000422618272700	0.0000607248065879	-0.0000677377276717
Mg	1.5668859879680672	17.5588783675573481	-10.8539775886744803	-0.0000063733492083	-0.0002075580195230	0.0000120547279230
Mg	-1.5800002265342348	23.3940957744568578	-12.1341233900772174	-0.0001254309278848	0.0001665130891021	-0.0000893406686110
Mg	-3.4063684675566197	25.5868177367855125	-13.0394637452589315	0.0001054357337804	-0.0000671047242414	-0.0000766739163397
Mg	0.6739131916066433	19.9910600811780306	-9.5708365457942008	0.0000688022020889	0.0001018832276796	0.0000538156328047
Mg	-1.4380942249175670	20.5307320802780211	-11.6299547030138406	-0.0000406239164919	-0.0001100710783987	0.0000161405154997
Mg	6.4717277699145521	25.2943604541448863	-10.6782915642207783	-0.0000488203210586	-0.0000127580539380	-0.0000190266078129
11
REF_energy=-257.0252793157635551 charge=0 Properties=species:S:1:pos:R:3:REF_forces:R:3
Mg	6.0069722900710172	0.6126220348422502	-2.4263230352182661	0.0001367573661709	0.0000508733502541	-0.0000336628493463
Mg	4.8277735783909481	3.3908297139505752	-1.8655093512632221	-0.0000141611805420	-0.0000798238647473	-0.0000248476655539
Mg	3.0417555944432144	1.0094064279327193	-1.5198739043792464	-0.0000855392755440	0.0000363549313294	0.0000171887190961
Mg	3.7006507647010953	-3.9382431913476124	-0.1523444346612443	-0.0000368243622851	-0.0000004729823744	-0.0000404367424403
Mg	0.6887853975795865	-0.6975867252477734	-2.5394062352659463	0.0000082999476233	-0.0000124572225348	-0.0000064488028641
Mg	6.0238222680542730	1.7412023736015640	0.2516652891992713	0.0000021923644502	0.0000431913087388	0.0000815463730462
Mg	1.0148063997331711	-3.6107349617693263	-1.5501348464855416	0.0000024651556264	-0.0000324990997568	-0.0000132692086510
Mg	2.0071285313629366	-1.3663169285905257	0.0857179040294967	0.0000349964634950	0.0000395062333600	0.0000308527025830
Mg	3.4744547070758647	-1.7228408286411150	-2.5806071573557863	-0.0000675333718767	-0.0000255747116787	-0.0000742942490793
Mg	1.2260420675273540	-3.8802099317290435	1.5378096561972945	0.0000945114650790	0.0000679689892169	0.0000127033908255
Mg	5.1233172690256898	-1.1972689374285010	-0.0565719583952468	-0.0000751645721970	-0.0000870669318071	0.0000506683323841
11
REF_energy=-242.8635485340501532 charge=2 Properties=species:S:1:pos:R:3:REF_forces:R:3
Mg	-25.8123240319792124	36.6179073989323527	25.2399669327761735	0.0000000341144387	-0.0000034427683010	-0.0001219701607116
Mg	-25.9372108093067091	42.2746968941642152	26.4232105117162170	0.0000101195250335	0.0000397827272741	-0.0000023222562081
Mg	-21.9841036121253914	29.3071081490157255	24.8600716402414257	0.0001217349534696	0.0000438888148876	-0.0001559125196593
Mg	-22.8056265502362017	31.9487230186542490	23.6337486472725828	0.0000668263713889	-0.0000858003203085	-0.0000208906836869
Mg	-26.2429431665071426	44.4378596308256277	28.6213715278958780	-0.0000766220299835	-0.0000089847237522	-0.0000348513133712
Mg	-22.2749210916891123	30.1770741387496422	21.2391690610586359	-0.0002522878744281	0.0000069408631519	0.0000249060120502
Mg	-23.6341687816176815	34.6639163284882770	24.3580260010731600	0.0000062025340568	0.0000686010727679	0.0001181925088623
Mg	-27.4101543308292079	47.1780931365067815	27.7671941257572783	-0.0000261705446412	0.0000043870165695	-0.0000527562591529
Mg	-27.1050711774092541	45.0153282590130388	25.5694933472197903	0.0000063410575327	0.0000037224740115	-0.0000363863516100
Mg	-22.9423690155858040	37.6089815930801734	24.7931508807503178	0.0000985912150474	-0.0000671964727990	0.0002238643386469
Mg	-25.1214800131386689	39.5684653226269987	25.6833136271331099	0.0000452306780852	-0.0000018986835018	0.0000581266848404
11
REF_energy=-244.4853485166997871 charge=2 Properties=species:S:1:pos:R:3:REF_forces:R:3
Mg	6.2181140496456671	-6.0687727463166636	1.3029584293481784	-0.0000767881395603	0.0000743267159579	0.0000507020868759
Mg	12.2679533200099566	-4.9503006804758636	2.5963721395679191	-0.0000601614241015	0.0000735454644266	0.0000156710182830
Mg	8.6260371426499614	-7.9111500767270293	0.4875584619786719	0.0000575824880629	-0.0001119863736327	-0.0000112177189661
Mg	5.7196148133729103	-3.0374012539929631	0.3688120487866598	0.0001060666465398	-0.0000463663277192	0.0000615391055745
Mg	7.3267637007016404	-3.5211502582663954	2.7654892062208680	0.0000404295452830	-0.0000399437642458	-0.0000196923416987
Mg	10.2687702777575378	-2.9863942580346139	1.2364149409820246	-0.0000985345866136	-0.0000648776288296	-0.0000247132447689
Mg	9.3182806823250637	-5.7328864234640102	2.4241833352937605	0.0000442317081459	0.0000207832716601	0.0000173877706125
Mg	8.1913830667510652	-4.6107560440482027	-0.3788141185316962	0.0000409442465552	0.0001134893330308	-0.0000477031958359
Mg	6.8959925929043724	-7.0073591461463565	-1.6919038521665986	-0.0000828586895847	-0.0000831807036779	-0.0000695036722939
Mg	4.6063027231116509	-5.1804881287607500	-1.3279587856579402	-0.0000295131426366	0.0000526682214302	-0.0000154645167159
Mg	11.0743218014878995	-5.7116388996048650	-0.1784466177160207	0.0000586013479098	0.0000115417915995	0.0000429947089336
11
REF_energy=-257.3024721060233446 charge=0 Properties=species:S:1:pos:R:3:REF_forces:R:3
Mg	-0.9690554224700473	21.1746892797085913	-11.6670104076425378	-0.0001288893408941	0.0004138003981859	0.0000894222629632
Mg	0.8760589630492382	23.6994517498150365	-11.9296861643321659	-0.0003127819555940	-0.0000022809675853	0.0000456922696967
Mg	3.7460394652819833	20.2523335903541728	-9.3324422831933234	-0.0000143043110095	-0.0000644006468379	-0.0001131570851245
Mg	-1.8922800466498757	23.6489453323874628	-13.1848802883946608	0.0001877159115869	-0.0001461022250933	0.0001052343055874
Mg	2.0885975685114229	20.7690030370122827	-11.9867533061398071	0.0001531321987491	-0.0000119543416107	0.0001350867448771
Mg	0.3039169345575273	21.6473910881543539	-14.3646507707910178	-0.0001104699756690	0.0001249045762694	-0.0000373428628203
Mg	3.6192257913119614	22.9589497549176507	-10.5150788790133198	0.0000796066710428	0.0000154091415918	-0.0000035078538713
Mg	0.9838454425980536	22.2207524108478438	-9.2991481797304676	-0.0001687865471675	0.0000333180426679	-0.0000723270892604
Mg	-1.5314061260775065	23.7229782995134926	-10.2165943455893107	0.0002112750222546	-0.0001398872431924	-0.0001825425035553
Mg	3.5322003505976070	22.6493062335229745	-7.5421139027959985	0.0000490153175369	0.0000286639150110	0.0000955692008788
Mg	0.0879779961906763	18.9238754123830617	-13.2197058058320653	0.0000544870091636	-0.0002514706494063	-0.0000621273893714
11
REF_energy=-243.7598152130296967 charge=2 Properties=species:S:1:pos:R:3:REF_forces:R:3
Mg	-1.1608531937578153	24.1960720399057330	-7.7788044389527862	-0.0000681080697054	0.0000098247130056	0.0000873743604377
Mg	1.3353153994412643	24.5795846816010553	-3.7608472605291885	0.0000654888870020	-0.0000120705843818	0.0000089791454286
Mg	1.4925182263926977	22.8221728124733829	-6.1782922154075361	0.0000273736366993	-0.0000749397819889	-0.0000475852615335
Mg	0.4703620862446135	21.9345091593540538	-8.9008174953542554	-0.0000543899354426	-0.0001329615290141	0.0001199686441299
Mg	2.9564774276441712	20.5374435967904923	-7.5832121855386996	0.0000154600275277	0.0001693379132397	-0.0000348913666521
Mg	-3.6856226588318788	23.7543711294924584	-11.9515913166372147	0.0000993868130990	0.0000072445601093	-0.0000982965677104
Mg	1.8044586950228416	19.6513007684431606	-10.4893499262431611	0.0000026723335712	0.0000416481723713	0.0000034583623563
Mg	-0.5832437134392460	21.0725014561720734	-11.6603947348350818	-0.0000627471228386	-0.0000108247365400	0.0000035701722973
Mg	-1.0194364612367357	25.7655001162357564	-5.2253420144511606	0.0000010281081144	-0.0000033978216504	-0.0000220303517910
Mg	-0.7567548608043290	23.9959661233391621	-10.8069362613446316	-0.0000021254155248	-0.0000537791922019	0.0000058815222932
Mg	-2.5223092536259593	22.0917927628491988	-9.5373344456542331	-0.0000240392625021	0.0000599182870512	-0.0000264286592561
11
REF_energy=-243.9914387351563505 charge=2 Properties=species:S:1:pos:R:3:REF_forces:R:3
Mg	1.3958478780528125	23.5055981283630508	-5.7790535424275733	-0.0000680723806672	0.0000094055347324	0.0000690687734844
Mg	1.5798633427427038	23.7553789437856544	-8.8047400027054223	0.0000147442476756	-0.0000781759764990	-0.0000039216206200
Mg	-1.5128497251266921	21.8250416140161860	-4.9947655837194365	0.0000029139137159	0.0000192876822429	0.0000841269129731
Mg	-1.7324440827682772	22.0699130600703022	-12.8372111834846585	0.0001217204033785	-0.0000798844074871	-0.0000012901557663
Mg	0.1780519318204209	21.2643964471502294	-7.5123255232968180	-0.0000402452418544	-0.0001224823272378	-0.0000817342783330
Mg	-2.4005040086447664	21.8205231570067291	-15.7978193242051823	-0.0000167973969922	0.0002385984360286	-0.0000708573574826
Mg	-2.9558090052576818	21.1347162659498622	-7.5813524740240501	-0.0000157593141820	-0.0000809209648566	-0.0000047088182664
Mg	1.1370860373041216	23.0696462052942088	-0.0543723243825852	0.0001748889621872	0.0001840734770399	-0.0000029991091347
Mg	0.4793778810610630	22.8488593507012681	-2.9997175556177607	-0.0001007081404500	0.0000266746391676	0.0001113511479244
Mg	-1.2214564804852750	23.7420112743469254	-7.3935891825081832	-0.0000369468564863	-0.0000863690478426	-0.0000296391231146
Mg	-1.0921342740152018	22.3029778646220365	-9.9948363360156876	-0.0000357381963250	-0.0000302070452883	-0.0000693963716643
11
REF_energy=-244.1689945268199722 charge=2 Properties=species:S:1:pos:R:3:REF_forces:R:3
Mg	2.0795631660408382	19.0147132382103834	-9.8058178528013524	-0.0000760673789423	-0.0000446290056031	0.0001374926424220
Mg	2.9156714216228656	17.8021019778287766	-7.2332610759316145	0.0002503128246150	0.0002076175013720	-0.0000211607038764
Mg	1.9090675648990767	29.3565681944691015	-10.9043926834771536	0.0001858106024526	0.0000784637690826	-0.0000170688061306
Mg	3.5192238199344663	21.5266089472982394	-10.5109864048249690	-0.0000747021274900	0.0000179220486942	0.0000565343357675
Mg	0.0336766362754784	18.6024815054490844	-7.6453967553872140	-0.0000292773039552	-0.0003573139494982	-0.0000678063002873
Mg	1.3829222637457812	18.9004795021907945	-4.9772518843711513	0.0002031447262374	-0.0001391661153729	-0.0000370604149484
Mg	2.0089819579571189	26.3787202795073945	-10.4389805982970341	0.0000630395009059	-0.0001150711417951	-0.0001112080530126
Mg	2.1429774371441002	20.8505678540293289	-7.4923870210259800	-0.0004126599368809	0.0002400135077809	0.0000674695575483
Mg	0.5757512457555235	21.5859471060244417	-10.2688911651284087	-0.0001476644556313	0.0000773267087119	-0.0001554941282206
Mg	2.2220986457559504	23.7851361834359274	-9.0044115160824525	0.0000223624105721	0.0000388256771908	-0.0000240171330622
Mg	2.0441897159437539	23.7130015540148200	-11.9887834553167814	0.0000157011381167	-0.0000039890005630	0.0001723190038003
11
REF_energy=-243.8381777033306719 charge=2 Properties=species:S:1:pos:R:3:REF_forces:R:3
Mg	-20.4557341818568119	41.4267403486490977	25.0789191032524492	-0.0001138715615443	0.0000887625556279	0.0001751206506950
Mg	-18.8713085047980975	44.1813002582158560	22.5649073788353043	-0.0000781528820766	0.0000737748340182	-0.0000379961635010
Mg	-19.2677454035314817	41.0980615619953298	22.2021879334153844	0.0003326742157087	-0.0001799476694007	-0.0000200428056926
Mg	-22.7024264084904708	39.1917170536600779	17.9410074858399753	0.0002162459611698	0.0002182054432370	0.0003482409137450
Mg	-25.2056323614127642	39.2449554004707721	16.2520900802801584	-0.0002072555013212	-0.0000790948834049	0.0001323532897533
Mg	-21.8750133967972573	39.6169430840053920	23.1805920429252161	0.0000814332604637	-0.0000258261200814	-0.0000144202886725
Mg	-21.6128814004647012	42.6736960336703106	22.4510055456065665	-0.0002648699294215	0.0001951648449585	-0.0001515317786194
Mg	-18.7673033081819725	43.8524899809326598	25.5356872719009047	-0.0000864510657250	-0.0000728775872114	0.0001350496882022
Mg	-22.0235498802823528	36.9373286661318758	16.0486669816691787	-0.0000867252240491	-0.0000903246574652	-0.0002213059755072
Mg	-21.5413020595221489	40.5825439644619834	20.2046758845999683	-0.0000074008352056	-0.0001135370322956	-0.0003966610507655
Mg	-19.8161416973245288	43.1973826953801634	19.9129200029562732	0.0002143735620011	-0.0000142997279824	0.0000511935203627
11
REF_energy=-255.7460236222705419 charge=0 Properties=species:S:1:pos:R:3:REF_forces:R:3
Mg	-4.8753340285453035	17.6122980613787306	-8.8458917009044029	-0.0000692026144284	-0.0000750267068832	-0.0000262919627731
Mg	-2.5245745644023723	18.5146817854438659	-6.8345487974248202	0.0000024559727004	0.0000145168180624	-0.0000318283241577
Mg	-1.6957079037116851	17.3264993174985129	-9.2859069670005976	-0.0000624103129448	0.0000441115941755	0.0000189853632237
Mg	-0.2378965064569755	16.5285487143795358	-6.7524399277578118	0.0001109984237936	0.0000150840856500	-0.0000377721644184
Mg	2.4435036039473541	15.9677084038294623	-5.5706952535962246	-0.0001181572924346	0.0001309506778695	-0.0000063240419900
Mg	5.4412220304310237	16.8353653021532779	-5.2363188176226272	0.0000230882627372	0.0000834233778462	-0.0000707703543380
Mg	4.8742738355083466	13.9989624559935706	-5.3016380615025982	0.0000594419581658	-0.0000385799657773	0.0000361859161586
Mg	-3.0841200837438660	15.5661758601926206	-7.2486845649045115	0.0000897994964579	-0.0000246886030254	0.0000490554238115
Mg	-6.0086275974646295	14.9522330181629677	-7.9425324907778370	0.0000232235444498	0.0000143778323845	0.0000081564483820
Mg	4.1620791687293899	15.5652338733535682	-2.9740602101886275	-0.0000389062236137	-0.0000371810092779	0.0000657845865422
Mg	7.2571796891579616	14.9297724550710473	-3.4021305879759511	-0.0000203312148833	-0.0001269881010243	-0.0000051808904407
11
REF_energy=-243.6775495487831336 charge=2 Properties=species:S:1:pos:R:3:REF_forces:R:3
Mg	-14.3938109868654216	9.4782409460661956	19.8830698765165010	0.0000599838548654	-0.0000363840357434	0.0000563599701507
Mg	-12.3131142581380217	14.5286966972305027	18.2183087926950051	-0.0000184587249205	-0.0000519202982158	0.0000100379404487
Mg	-12.6069348236009162	11.7309613559516261	19.4213989983773025	0.0000345466412976	-0.0000659488475699	0.0000196274935781
Mg	-9.9948223638942260	12.6622770750456812	18.1292080680044485	0.0000705352605096	0.0000660713564053	-0.0000098034852302
Mg	-10.8394645331836372	13.8646563178156033	20.7190773070262289	0.0000133737836230	-0.0000090230173754	-0.0000060622849159
Mg	-9.5336599605136527	15.5862161643068227	18.6339190069951819	-0.0000307274938183	-0.0000115828110258	0.0000007102729224
Mg	-19.4134491159716269	3.1041163295382241	21.2001611511965322	-0.0000571547628114	0.0000842523768689	-0.0000287959670489
Mg	-7.6748575093831199	17.9100657610752769	18.1604849784222431	-0.0000469890584945	0.0001026533707311	-0.0000398233871644
Mg	-16.5989166168434146	4.1347244278680630	20.4225949083998444	-0.0000834318152192	-0.0000605533448148	-0.0000001379459070
Mg	-19.0055569265850224	6.1725663502652521	21.1251204151829839	0.0000032847315916	0.0000178476476219	-0.0000196404324406
Mg	-16.1901650794436627	7.2036462781185930	20.3507448421535919	0.0000550375833768	-0.0000354123968821	0.0000175278256070
11
REF_energy=-243.6657103422353998 charge=2 Properties=species:S:1:pos:R:3:REF_forces:R:3
Mg	1.3545484843112707	20.8006672291121397	-8.3301735413815443	0.0001203797271396	-0.0000052094264772	-0.0000154300628086
Mg	-1.3555179906073076	26.5063041222981610	-14.8291751001221837	-0.0000986909614252	-0.0000017726122011	-0.0000584344610938
Mg	2.8662795285243186	25.2071040037592375	-10.4776370955742415	-0.0000091047655982	-0.0000073289516802	0.0000302560510480
Mg	3.3617347344108461	26.0172548003598401	-13.3046227534911772	-0.0000309989053529	0.0000373130877247	0.0000090430037917
Mg	0.5000399073918772	16.5920075355432317	-4.1509773365164442	-0.0000891563037846	0.0000087122812989	-0.0000013084658156
Mg	3.8092888525557220	22.3531843136678674	-9.4074066053321292	-0.0000219720419070	0.0000018024991817	-0.0000180182418359
Mg	0.9405731683436404	18.7321102142307581	-6.2736928095751976	0.0000315726676786	-0.0000705960999022	0.0000282662636381
Mg	1.5151226920159750	27.4192686871519840	-15.1520778918078971	0.0000061048480888	-0.0000943935630724	0.0000214508298294
Mg	3.2965473293884497	23.1607498744100262	-12.4514965528971029	-0.0000130834394410	-0.0000096900588964	-0.0000493595303624
Mg	0.5975213073641791	24.9545110644374617	-12.8046441526852863	0.0001151116107812	0.0000791242892207	0.0000138356686100
Mg	0.9909018583217258	22.7862004709266124	-10.4715444624314262	-0.0000101624361792	0.0000620385548034	0.0000396989449991
11
REF_energy=-243.4649268285104426 charge=2 Properties=species:S:1:pos:R:3:REF_forces:R:3
Mg	7.3077168829100829	-0.0949170949307393	1.0836583948323526	-0.0000173506691139	0.0002114861169093	0.0000366670004055
Mg	7.6451180281418241	-0.6846776762191626	4.1288296763903256	-0.0000708413089652	0.0000155690113630	-0.0000652942036412
Mg	4.2829866430909975	0.0986188480546130	0.3388223601914045	-0.0001728714783064	-0.0000254775534879	-0.0000713548200403
Mg	5.3937972081754690	-2.5219739711110054	5.1521985490230868	-0.0000500516026825	0.0000890906386580	0.0000124550312081
Mg	4.8341412660512448	-0.3067444434841569	3.1519308973173512	0.0000094899389956	-0.0001759256313304	0.0002397319662532
Mg	3.9947192158016804	2.2812347846986176	8.1722879775656487	0.0001205119955767	0.0000720646272653	0.0001590690491492
Mg	3.5379898423543743	0.4160230760050976	-2.4602872480753772	-0.0000866350217433	-0.0000350683819816	-0.0000847603202981
Mg	2.6899271523602071	0.7230072315105682	-5.2960172559131591	0.0000696869279533	-0.0000187441825936	0.0001115231841659
Mg	1.7872155588105465	1.0317609307966280	-8.1953127141106688	0.0001244373454734	-0.0000149880759026	-0.0001072663430089
Mg	7.5217728431837632	-1.4646483567086723	6.9061265404370449	-0.0000073217713278	-0.0000148345947078	-0.0001140537105423
Mg	5.2919332883402577	0.3671724335720827	6.1372684491771547	0.0000809456441400	-0.0001031719741917	-0.0001167168336511
11
REF_energy=-243.6104577941938203 charge=2 Properties=species:S:1:pos:R:3:REF_forces:R:3
Mg	-3.0902183274452568	23.7216416680324720	-10.8263946588894964	-0.0000107707540473	0.0000088787713207	-0.0000090558318148
Mg	-0.4959485519852077	22.3482109403936136	-10.2395657242356339	-0.0000000933011662	0.0000031698556803	0.0000014534450383
Mg	-0.4654862555680671	23.1997779629221768	-15.8938471003539963	-0.0000281354475711	-0.0000480291337289	-0.0000331144871322
Mg	-0.5958428065933588	25.3215428740123265	-10.5730026490171181	0.0000127084537145	0.0000389400488175	-0.0000419950997835
Mg	-1.9049545759043904	23.7463254287618497	-5.1791963425047305	0.0000347086307398	-0.0000186475163872	0.0000443518744574
Mg	-1.5822191043364642	19.2210033010816481	-2.1098563066504266	-0.0000038767924062	-0.0000354273587196	-0.0000472558148386
Mg	-1.7866247868985934	24.0263776419221813	-8.1255140612071255	-0.0000180345086385	-0.0000092647103640	0.0000010985325148
Mg	-0.3699084246551168	21.6065872315452552	-6.8057597214901024	0.0000241465149239	0.0000390040931260	-0.0000148619871490
Mg	-0.6394762101338839	21.5494633504500328	-3.7177513325430156	0.0001200077096144	0.0000139080530377	0.0000287654657469
Mg	-1.0759721796781325	23.6897722406585487	-12.9958778157125856	-0.0000145354632305	0.0000187359676016	-0.0000132892511547
Mg	1.6674555851334012	21.3161483938434593	-1.8392583209107611	-0.0001161250419327	-0.0000112680703840	0.0000839031541155
11
REF_energy=-243.4518573823205543 charge=2 Properties=species:S:1:pos:R:3:REF_forces:R:3
Mg	-0.0800935617051131	22.4868630166243477	-10.7147375108805534	0.0000533422332611	0.0000683018135119	0.0000381317949658
Mg	0.8235382719612364	27.8719027592788997	-10.0241205171739303	0.0000038476900287	-0.0000102296589335	0.0000475771135247
Mg	0.9815282501449621	14.9263444246177652	-13.9855517872449475	-0.0000765157381124	-0.0000491303355912	0.0000050863042339
Mg	-0.7907953496302842	27.1811289361697810	-7.4272448839193759	-0.0000131990955110	0.0000109557757322	0.0000156981808874
Mg	1.2087224056667185	19.6971587312491110	-10.5733568203034416	0.0001154938691931	0.0000489968324891	-0.0001127905087010
Mg	-0.9804158003491357	29.8560476902795706	-8.7574975116862497	0.0000108195391731	-0.0000398766922135	0.0000032054456063
Mg	-0.4300179003436304	25.1724443826346977	-9.7033383239268911	0.0000140187500016	-0.0000165141569509	-0.0000030228928348
Mg	-0.7266177082862854	20.4326494921612145	-12.9215837914086773	-0.0000435367523038	-0.0000361299697771	0.0000262787187489
Mg	-1.0077762733808620	27.2632012646567965	-4.3404740944436799	-0.0000651635729331	0.0000229542883515	-0.0000290395666465
Mg	0.5882995111538960	17.6804037350137335	-12.7713427801836303	0.0000020149205584	0.0000214789848023	0.0000202843899354
Mg	-2.1560571860594715	27.5629172165236227	-10.2245958718384173	-0.0000011218433557	-0.0000208068814206	-0.0000114089797202
11
REF_energy=-257.9668306385863161 charge=0 Properties=species:S:1:pos:R:3:REF_forces:R:3
Mg	1.4396536337435304	24.3207531914656272	-11.8468847361959284	0.0001080728832497	0.0000506418226420	0.0000021625199740
Mg	-0.7878167454182344	22.5786129611638486	-12.4396738955872603	-0.0000410479485117	-0.0000424090964116	0.0000349259202078
Mg	3.9548768160601981	21.0496971151364178	-8.6705988058592620	-0.0000979691442208	-0.0000476710143051	-0.0000168053214497
Mg	1.8886901063152055	20.1002278652384412	-10.6407930661671681	-0.0000288488984457	0.0000569449773167	-0.0000791267725257
Mg	-3.2039115295372214	20.8240431987515606	-12.0811257003620760	-0.0000480193794043	-0.0000556771607277	0.0000392728434787
Mg	-0.8881163922361477	24.0191257616168450	-9.8671113160650812	-0.0000320226648361	0.0000612974496323	0.0000153373829718
Mg	3.6734434639728475	22.4348434782892276	-11.2170148746597409	0.0000584175551670	0.0000529258947222	0.0000145293444255
Mg	1.5057422808781520	22.6391977738836125	-9.0832015772043189	0.0000580205339877	0.0000353086094786	-0.0000104932529831
Mg	-0.3237217012967051	19.6920934112154775	-12.4702635108940143	0.0000222643586115	-0.0000333477501819	0.0000101266942639
Mg	1.8356500288535893	21.7072165934294503	-13.4154664015714022	0.0000344069949874	-0.0000275059236546	0.0000091164499922
Mg	-0.8874891850760204	20.9725434163431430	-9.8232682279720809	-0.0000332742905849	-0.0000505078085110	-0.0000190458083554
11
REF_energy=-259.1914696797160786 charge=-1 Properties=species:S:1:pos:R:3:REF_forces:R:3
Mg	0.5573060257352879	18.9260621466767169	-14.2227490811264783	-0.0001305672506708	-0.0000234596897152	0.0000065517433106
Mg	-0.0997386618664934	21.8754097341219946	-13.9016347582904682	0.0002189024872680	0.0004420795505557	0.0000356736040949
Mg	0.9888517420142159	20.2648985646733379	-11.3904812183952373	-0.0000739811102818	0.0001211606931528	0.0002288482282057
Mg	1.4280370458483571	22.3114580376216622	-9.2068308469031539	-0.0001139172824822	-0.0001652193859555	-0.0002547063538342
Mg	-0.8869932176208921	24.4962828544191389	-12.8174215846233661	0.0001428908535449	-0.0003007467629526	-0.0001169734979268
Mg	0.4560463555745731	25.1024894119745667	-10.0703810260935303	-0.0001476939651256	0.0000983551920723	0.0001208544437337
Mg	3.3722303453495965	24.5984245583724146	-9.5629333629814521	0.0000996792756864	0.0000380386275575	0.0000442903419311
Mg	1.8923697112927909	23.3304779528380841	-12.0172264233935699	0.0000114877167683	-0.0002638913576803	-0.0002724930185524
Mg	-1.0942816021399118	22.3363097568828408	-10.8252962821557528	0.0001052788585039	0.0000262370185704	0.0000487567532290
Mg	-2.9236741573815914	22.0365267613184699	-13.2271816580031754	0.0000628756679525	-0.0001850757678255	0.0000597311612407
Mg	2.7020880814779242	20.9916439042509495	-13.7027386253352201	-0.0001749552511635	0.0002125218822206	0.0000994665945675
11