8
Lattice="10.0 0.0 0.0 0.0 10.0 0.0 0.0 0.0 10.0" Properties=species:S:1:pos:R:3:tags:I:1:forces:R:3 unique_id=121bd9e9098540c18cccae4d46588aef key_value_pairs="_JSON {\"extinct\": 0, \"origin\": \"CutAndSplicePairing\", \"raw_score\": 35306.48922352768, \"generation\": 0, \"relaxed\": 1, \"gaid\": 53}" data="_JSON {\"parents\": [47, 16]}" confid=53 relax_id=54 energy=-35306.48922352768 free_energy=-35306.48922352768 pbc="F F F"
Na       2.94256171       3.24893419       3.38105159        0      -0.00677265       0.00534473      -0.00882194
Na       3.38032645       6.73537044       3.70093969        1       0.00883165      -0.00617571      -0.00633535
Na       6.05051446       3.07770229       4.95178302        2       0.00559938      -0.02210958       0.00675978
Na       5.89362555       4.95026317       2.00960959        3      -0.00402485      -0.00348345      -0.01926433
Na       3.04324114       4.45640716       6.50421856        4       0.00047739       0.00998995       0.00041610
Na       6.94111268       6.54160243       4.74570891        5       0.00323411       0.01520251      -0.01233637
Na       6.27850379       4.88457637       7.75122215        6       0.01520619      -0.01264021       0.02471071
Na       4.35361686       7.75409625       6.71945947        7      -0.02313233       0.01303801       0.01529612
8
Lattice="10.0 0.0 0.0 0.0 10.0 0.0 0.0 0.0 10.0" Properties=species:S:1:pos:R:3:tags:I:1:initial_charges:R:1:forces:R:3 unique_id=6af8ece1556046aaa4d3e62713aff22e key_value_pairs="_JSON {\"origin\": \"StartingCandidateUnrelaxed\", \"relaxed\": 1, \"generation\": 0, \"extinct\": 0, \"gaid\": 11, \"raw_score\": 35306.45930030935}" confid=11 relax_id=31 energy=-35306.45930030935 free_energy=-35306.45930030935 pbc="F F F"
Na       3.26588910       3.27132239       6.39324062        0       0.00000000       0.00888972       0.00508499      -0.00611907
Na       3.03187394       6.82234598       6.29772118        1       0.00000000      -0.03806301      -0.00881398       0.01963229
Na       5.18239499       3.23090258       3.14563368        2       0.00000000      -0.00147927       0.02747455      -0.00287298
Na       7.74049330       5.28586072       4.52526992        3       0.00000000       0.01573229      -0.00177506      -0.02278010
Na       4.99476714       6.88317054       3.50963910        4       0.00000000       0.02923779      -0.03397476       0.01171403
Na       2.19570437       4.72461628       3.45221457        5       0.00000000      -0.01151220       0.01387966       0.00235081
Na       5.86377611       5.51894306       7.43318065        6       0.00000000      -0.01354131       0.03239779      -0.01727242
Na       6.52012218       2.36281121       6.16573431        7       0.00000000       0.01104309      -0.03472423       0.01667979
8
Lattice="10.0 0.0 0.0 0.0 10.0 0.0 0.0 0.0 10.0" Properties=species:S:1:pos:R:3:tags:I:1:initial_charges:R:1:forces:R:3 unique_id=2fa616bc5a344412bb9f3ceadeac2cca key_value_pairs="_JSON {\"origin\": \"StartingCandidateUnrelaxed\", \"relaxed\": 1, \"generation\": 0, \"extinct\": 0, \"gaid\": 15, \"raw_score\": 35306.440967318296}" confid=15 relax_id=35 energy=-35306.440967318296 free_energy=-35306.440967318296 pbc="F F F"
Na       7.08100308       3.40977972       6.94693295        0       0.00000000       0.01325163      -0.00096270      -0.02789234
Na       7.61448033       5.35151606       3.86793194        1       0.00000000       0.00474570      -0.01095589       0.00927656
Na       5.36517541       2.75503060       3.85342162        2       0.00000000      -0.00507730      -0.01816809      -0.00629248
Na       3.72216707       3.92227233       6.73169894        3       0.00000000      -0.01635425       0.03174872      -0.00076549
Na       2.84724104       7.23194026       6.25121894        4       0.00000000       0.03067610      -0.03049720       0.00359848
Na       2.98914358       5.02039725       3.40316602        5       0.00000000      -0.00394287      -0.01683755       0.01536473
Na       5.20652032       7.60571986       3.61677640        6       0.00000000       0.01888586       0.02614309      -0.00626158
Na       6.26469062       6.68198451       6.83747983        7       0.00000000      -0.04231523       0.01975120       0.01360635
8
Lattice="10.0 0.0 0.0 0.0 10.0 0.0 0.0 0.0 10.0" Properties=species:S:1:pos:R:3:tags:I:1:forces:R:3 unique_id=205ee403c263451c83b2a83cdbe763b5 key_value_pairs="_JSON {\"extinct\": 0, \"origin\": \"CutAndSplicePairing\", \"raw_score\": 35306.4093896477, \"generation\": 0, \"relaxed\": 1, \"gaid\": 115}" data="_JSON {\"parents\": [15, 113]}" confid=115 relax_id=116 energy=-35306.4093896477 free_energy=-35306.4093896477 pbc="F F F"
Na       7.05941484       4.15568600       6.72389897        0      -0.01880566      -0.03547708      -0.00245988
Na       5.20187854       2.45707044       3.95494340        1       0.02408950      -0.01487064       0.03926033
Na       3.69022469       3.99731944       6.78396033        2      -0.01554532      -0.00528495       0.01922706
Na       3.57799370       7.26092453       6.04119952        3       0.00933426      -0.00724168      -0.01273132
Na       2.89730277       4.86427322       3.48675161        4       0.01619706       0.02194035      -0.00263742
Na       6.99410484       7.37784138       5.84104249        5      -0.02550007       0.01777167      -0.01890748
Na       5.05665476       7.36639886       2.75766031        6       0.00976941       0.01422992       0.02522846
Na       7.34203594       4.94751641       3.36182811        7      -0.00042610       0.01095185      -0.04626084
8
Lattice="10.0 0.0 0.0 0.0 10.0 0.0 0.0 0.0 10.0" Properties=species:S:1:pos:R:3:tags:I:1:initial_charges:R:1:forces:R:3 unique_id=8f27cb8fdcb947fb9a767dabdbe625f3 key_value_pairs="_JSON {\"origin\": \"StartingCandidateUnrelaxed\", \"relaxed\": 1, \"generation\": 0, \"extinct\": 0, \"gaid\": 12, \"raw_score\": 35306.39236794612}" confid=12 relax_id=32 energy=-35306.39236794612 free_energy=-35306.39236794612 pbc="F F F"
Na       7.37037812       7.39310589       6.72790805        0       0.00000000      -0.02369072       0.02132660      -0.00164043
Na       2.96604972       6.08525797       7.91544355        1       0.00000000       0.02145246      -0.01435366      -0.00226087
Na       5.81820827       2.44429398       4.08750717        2       0.00000000      -0.02651330       0.03821428      -0.00906524
Na       6.59645632       5.85558761       3.76886420        3       0.00000000       0.03099456      -0.02974505       0.00407560
Na       2.99545669       4.40392450       4.89628027        4       0.00000000       0.02007994       0.02705066       0.02195964
Na       5.84439079       4.32429822       6.94431970        5       0.00000000      -0.02212198       0.00216133      -0.01676725
Na       4.21877004       7.85792712       5.23202624        6       0.00000000      -0.01135675      -0.03424327      -0.01294635
Na       3.61849955       6.41479798       2.12464582        7       0.00000000       0.01144332      -0.00761952       0.01616964
8
Lattice="10.0 0.0 0.0 0.0 10.0 0.0 0.0 0.0 10.0" Properties=species:S:1:pos:R:3:tags:I:1:forces:R:3 unique_id=b961db80b4f247f39f1d789498b03447 key_value_pairs="_JSON {\"extinct\": 0, \"origin\": \"CutAndSplicePairing\", \"raw_score\": 35306.38660857464, \"generation\": 0, \"relaxed\": 1, \"gaid\": 64}" data="_JSON {\"parents\": [21, 9]}" confid=64 relax_id=65 energy=-35306.38660857464 free_energy=-35306.38660857464 pbc="F F F"
Na       4.02629611       1.84519295       3.71109171        0       0.01587068       0.03980715      -0.01982990
Na       6.65957208       4.20114028       3.66183095        1      -0.01628376       0.00187829       0.00404179
Na       6.00529516       7.57196910       3.20036550        2      -0.02060167      -0.02114040      -0.00481900
Na       7.81906706       3.47917661       6.81596808        3      -0.00074843      -0.00827143       0.02064141
Na       3.38359786       5.31134196       3.82844618        4       0.00506629      -0.00925790       0.00783693
Na       4.34086381       3.43501211       6.72779271        5      -0.00320959       0.00245737       0.01088601
Na       2.61908672       6.42469118       7.05372162        6       0.01490504      -0.00502641      -0.00699039
Na       6.05200495       6.42198148       6.47167424        7       0.00517960      -0.00079724      -0.01197573
8
Lattice="10.0 0.0 0.0 0.0 10.0 0.0 0.0 0.0 10.0" Properties=species:S:1:pos:R:3:tags:I:1:forces:R:3 unique_id=82ec7b008b6541bc99a7da3d33d5c951 key_value_pairs="_JSON {\"extinct\": 0, \"origin\": \"CutAndSplicePairing\", \"raw_score\": 35306.37231944045, \"generation\": 0, \"relaxed\": 1, \"gaid\": 90}" data="_JSON {\"parents\": [19, 4]}" confid=90 relax_id=91 energy=-35306.37231944045 free_energy=-35306.37231944045 pbc="F F F"
Na       3.83959250       3.38251392       4.50467755        0       0.04005669      -0.00755624       0.02218053
Na       7.36148277       3.75891830       3.88745041        1      -0.01813948      -0.00998706      -0.00087972
Na       5.88773434       3.35272882       7.17073566        2      -0.01119594       0.00865503      -0.02934216
Na       3.34557019       5.73388893       7.20242152        3      -0.00911818      -0.03700541       0.01467129
Na       1.78931796       4.82540496       2.46326641        4       0.00986608       0.02727960       0.01511910
Na       5.29055707       5.92603502       2.19382089        5       0.02207388      -0.03003415       0.02507298
Na       3.31311110       7.55383776       4.41759581        6      -0.01919236       0.03561558      -0.01851246
Na       6.37324647       6.67569913       5.54514407        7      -0.01336198       0.01262901      -0.02797789
8
Lattice="10.0 0.0 0.0 0.0 10.0 0.0 0.0 0.0 10.0" Properties=species:S:1:pos:R:3:tags:I:1:initial_charges:R:1:forces:R:3 unique_id=ae07ac914ea249cc8fa4eb7105a79ea6 key_value_pairs="_JSON {\"origin\": \"StartingCandidateUnrelaxed\", \"relaxed\": 1, \"generation\": 0, \"extinct\": 0, \"gaid\": 7, \"raw_score\": 35306.37135376279}" confid=7 relax_id=27 energy=-35306.37135376279 free_energy=-35306.37135376279 pbc="F F F"
Na       4.08602332       3.43050050       6.05981016        0       0.00000000      -0.00497126       0.01230597      -0.01589975
Na       4.70282681       6.75436737       6.64523004        1       0.00000000      -0.02719270      -0.00590290      -0.00543365
Na       6.02832627       5.79397350       3.17130465        2       0.00000000       0.01986591       0.02857582       0.02303201
Na       7.32497175       4.53258545       6.54699831        3       0.00000000      -0.00438798       0.00265204      -0.01520041
Na       7.71756529       7.89400346       5.07707704        4       0.00000000       0.00359392      -0.01750090      -0.01553148
Na       3.95082340       3.46466302       2.17206495        5       0.00000000      -0.01510481      -0.01209260      -0.00153275
Na       2.53891149       6.04707951       4.06891198        6       0.00000000       0.01970761      -0.00760895       0.02229115
Na       6.78024282       2.39371746       3.93015220        7       0.00000000       0.00866660      -0.00059780       0.00866019
8
Lattice="10.0 0.0 0.0 0.0 10.0 0.0 0.0 0.0 10.0" Properties=species:S:1:pos:R:3:tags:I:1:initial_charges:R:1:forces:R:3 unique_id=c9bdbba2f42c4f99a0a492d075235030 key_value_pairs="_JSON {\"origin\": \"StartingCandidateUnrelaxed\", \"relaxed\": 1, \"generation\": 0, \"extinct\": 0, \"gaid\": 4, \"raw_score\": 35306.365277650766}" confid=4 relax_id=24 energy=-35306.365277650766 free_energy=-35306.365277650766 pbc="F F F"
Na       3.93676479       4.10096052       6.28548155        0       0.00000000      -0.02357733      -0.03449345      -0.01536604
Na       7.40547625       4.65331659       6.68059311        1       0.00000000      -0.03180664      -0.02541216       0.01595531
Na       5.99917796       4.01355725       3.62909773        2       0.00000000       0.01716242       0.00582214       0.01468393
Na       2.59167857       3.67108675       3.08501443        3       0.00000000       0.03529492      -0.01587478       0.01152468
Na       5.61218464       6.95234330       2.00061853        4       0.00000000      -0.01850652       0.03857732      -0.02435224
Na       3.13550341       7.14304014       7.48509759        5       0.00000000       0.02509339       0.03577174       0.00711541
Na       2.88859970       6.92507792       4.08503928        6       0.00000000      -0.02942748      -0.00569410       0.00704064
Na       5.94506968       7.43971591       5.37829643        7       0.00000000       0.02668368       0.00172715      -0.01707629
8
Lattice="10.0 0.0 0.0 0.0 10.0 0.0 0.0 0.0 10.0" Properties=species:S:1:pos:R:3:tags:I:1:initial_charges:R:1:forces:R:3 unique_id=b7ceac50835c428aba45f6c8ff34ad57 key_value_pairs="_JSON {\"origin\": \"StartingCandidateUnrelaxed\", \"relaxed\": 1, \"generation\": 0, \"extinct\": 0, \"gaid\": 9, \"raw_score\": 35306.33678558807}" confid=9 relax_id=29 energy=-35306.33678558807 free_energy=-35306.33678558807 pbc="F F F"
Na       2.52674067       4.86714821       3.67727851        0       0.00000000      -0.01790909      -0.00274937      -0.00484739
Na       4.34794815       1.85737605       4.29385376        1       0.00000000       0.00670275       0.02342579       0.00985644
Na       5.97244283       4.78614346       4.21502313        2       0.00000000       0.00631788      -0.03368728       0.02471071
Na       7.68993796       7.63222532       4.32523112        3       0.00000000       0.01885044       0.00219483       0.00262535
Na       4.71563147       3.56813468       7.42544624        4       0.00000000       0.00337162      -0.01585786      -0.03400283
Na       2.56689377       6.28459535       6.87507298        5       0.00000000      -0.01976365       0.00959450      -0.00939644
Na       4.14204164       7.82555498       4.13088662        6       0.00000000      -0.02481587      -0.00570863       0.01309011
Na       5.94809565       6.67892789       7.28996861        7       0.00000000       0.02675027       0.02025634      -0.00285460
8
Lattice="10.0 0.0 0.0 0.0 10.0 0.0 0.0 0.0 10.0" Properties=species:S:1:pos:R:3:tags:I:1:initial_charges:R:1:forces:R:3 unique_id=565efe472a084eefa04c1c36a0870eeb key_value_pairs="_JSON {\"origin\": \"StartingCandidateUnrelaxed\", \"relaxed\": 1, \"generation\": 0, \"extinct\": 0, \"gaid\": 19, \"raw_score\": 35306.330380435975}" confid=19 relax_id=39 energy=-35306.330380435975 free_energy=-35306.330380435975 pbc="F F F"
Na       4.31740775       7.28215321       4.02965362        0       0.00000000       0.02455510       0.02747315       0.00211874
Na       4.20241463       3.50456543       4.31451416        1       0.00000000       0.00136233      -0.03367047      -0.01166033
Na       6.94617185       5.93562329       5.75266207        2       0.00000000       0.01996381       0.01479568      -0.00810315
Na       6.63281387       5.41548186       2.29865464        3       0.00000000      -0.02600855      -0.01131366       0.01517714
Na       7.40900427       2.60796593       4.19101627        4       0.00000000       0.01024911      -0.00737767       0.01502317
Na       5.62650575       2.90390163       7.36477814        5       0.00000000       0.01478632      -0.00274213      -0.02617470
Na       3.78066871       5.79861589       7.05824586        6       0.00000000      -0.04779016       0.00693013      -0.00135799
Na       1.74440845       5.09483761       3.00014067        7       0.00000000       0.00190492       0.00608024       0.01605152
8
Lattice="10.0 0.0 0.0 0.0 10.0 0.0 0.0 0.0 10.0" Properties=species:S:1:pos:R:3:tags:I:1:forces:R:3 unique_id=770920ea5b704b39b86d4c19737f9c25 key_value_pairs="_JSON {\"extinct\": 0, \"origin\": \"CutAndSplicePairing\", \"raw_score\": 35306.327064211575, \"generation\": 0, \"relaxed\": 1, \"gaid\": 79}" data="_JSON {\"parents\": [9, 7]}" confid=79 relax_id=80 energy=-35306.327064211575 free_energy=-35306.327064211575 pbc="F F F"
Na       6.92522426       5.03414151       3.86766289        0       0.01781031      -0.01245495       0.03785534
Na       7.59751748       8.15312867       4.89209724        1       0.00797268       0.00486338      -0.00834605
Na       4.52057434       7.43405002       3.16973494        2      -0.01356348       0.02280275      -0.04083208
Na       5.18748619       6.56445137       6.80124865        3       0.00096132      -0.00223471       0.03241365
Na       4.53225701       3.37240970       6.21626394        4       0.00650135      -0.01401904       0.02429414
Na       3.92086111       4.20165057       2.41758683        5      -0.03544313       0.00210355      -0.02211719
Na       2.19943127       5.72658170       5.13513168        6       0.00803933      -0.00224277      -0.00873057
Na       6.23201014       1.75289491       3.69629662        7       0.00746326       0.00196754      -0.01380259
8
Lattice="10.0 0.0 0.0 0.0 10.0 0.0 0.0 0.0 10.0" Properties=species:S:1:pos:R:3:tags:I:1:forces:R:3 unique_id=5cb7c848b0e24956942578b7dcb0debf key_value_pairs="_JSON {\"extinct\": 0, \"origin\": \"RattleMutation\", \"raw_score\": 35306.309435723306, \"generation\": 0, \"relaxed\": 1, \"gaid\": 126}" data="_JSON {\"parents\": [126]}" confid=126 relax_id=128 energy=-35306.309435723306 free_energy=-35306.309435723306 pbc="F F F"
Na       2.73961352       4.59066167       6.18372494        0      -0.01169858      -0.01578678      -0.00715626
Na       3.82082894       7.52407127       7.39682780        1       0.01274275       0.03518354      -0.00323018
Na       4.44835702       2.65510504       4.13830121        2      -0.02155961       0.00202620      -0.00160859
Na       7.66278286       3.68810779       3.81112754        3       0.02214370       0.01738393      -0.01707795
Na       1.91333301       4.67868405       2.74452373        4       0.03476869      -0.00720359       0.00610987
Na       5.25066653       5.66137573       1.88309863        5      -0.02216438       0.01167158       0.02128307
Na       3.25354228       7.73907680       3.75322107        6       0.02425788      -0.01158803       0.00032467
Na       6.06559759       6.27750443       5.21434286        7      -0.03751056      -0.03184729      -0.00023503
8
Lattice="10.0 0.0 0.0 0.0 10.0 0.0 0.0 0.0 10.0" Properties=species:S:1:pos:R:3:tags:I:1:forces:R:3 unique_id=0ada52da86e44d1db2b3341cfe95b8fe key_value_pairs="_JSON {\"extinct\": 0, \"origin\": \"RattleMutation\", \"raw_score\": 35306.30516905961, \"generation\": 0, \"relaxed\": 1, \"gaid\": 107}" data="_JSON {\"parents\": [107]}" confid=107 relax_id=109 energy=-35306.30516905961 free_energy=-35306.30516905961 pbc="F F F"
Na       4.03903324       7.72042691       3.40086284        0       0.00630331       0.00714479      -0.01559066
Na       3.08668267       4.56911734       6.38105550        1       0.01619335      -0.00323600      -0.02494111
Na       6.32562497       5.96475129       5.19978393        2      -0.00166461      -0.02552515       0.04252089
Na       4.24139296       7.73466573       7.07372710        3      -0.01782340       0.00944704      -0.00348939
Na       4.46222206       2.39046550       4.19798336        4       0.01829216       0.02457890       0.02914098
Na       5.82698784       5.12531982       1.93411154        5      -0.02120188      -0.00014458       0.00203618
Na       7.84410125       3.19583893       4.34843565        6       0.02084144      -0.01802164      -0.02588153
Na       2.41329884       4.73864685       2.88088698        7      -0.01951731       0.00633772      -0.00404680
8
Lattice="10.0 0.0 0.0 0.0 10.0 0.0 0.0 0.0 10.0" Properties=species:S:1:pos:R:3:tags:I:1:forces:R:3 unique_id=5db9f3828ae34182a9eb79e6aa239be1 key_value_pairs="_JSON {\"extinct\": 0, \"origin\": \"MirrorMutation\", \"raw_score\": 35306.0769743492, \"generation\": 0, \"relaxed\": 1, \"gaid\": 98}" data="_JSON {\"parents\": [98]}" confid=98 relax_id=100 energy=-35306.0769743492 free_energy=-35306.0769743492 pbc="F F F"
Na       5.18317055       7.50366702       3.30170790        0      -0.02066424      -0.01098937      -0.00028635
Na       5.10525877       7.72363501       6.61194604        0      -0.00115500       0.00077263       0.00355936
Na       7.04465467       4.76621161       3.52912973        0       0.00081240      -0.00228475      -0.00061805
Na       6.98397211       4.99323401       6.84423594        0       0.00464678       0.00171077      -0.00001336
Na       2.40898238       5.59577406       3.38755224        0       0.01776139       0.01540846      -0.00265170
Na       2.37103844       5.84276047       6.69622584        0      -0.00057729       0.00094517       0.00266379
Na       4.30893020       2.88495074       3.61338085        0       0.00244791      -0.00134355      -0.00165172
Na       4.25828960       3.11849897       6.92842668        0      -0.00325122      -0.00418695      -0.00096513
8
Lattice="10.0 0.0 0.0 0.0 10.0 0.0 0.0 0.0 10.0" Properties=species:S:1:pos:R:3:tags:I:1:forces:R:3 unique_id=0de28a97636c468eb4d727edc679a25f key_value_pairs="_JSON {\"extinct\": 0, \"origin\": \"MirrorMutation\", \"raw_score\": 35306.07149797613, \"generation\": 0, \"relaxed\": 1, \"gaid\": 68}" data="_JSON {\"parents\": [68]}" confid=68 relax_id=70 energy=-35306.07149797613 free_energy=-35306.07149797613 pbc="F F F"
Na       4.24997279       1.99213393       4.57973235        0      -0.00209461      -0.00591016       0.00690276
Na       6.17003110       5.25964385       2.40512987        0       0.00783687      -0.00199454       0.00549771
Na       7.44696301       2.48727394       3.79561881        0      -0.00539274       0.03003354       0.02091877
Na       2.97123996       4.70442260       3.14847928        0       0.00769984       0.01400080       0.02529264
Na       4.65761074       3.64985842       7.43035975        0      -0.00315862      -0.01070847       0.00047931
Na       6.58059319       6.91607470       5.25332171        0       0.00790087      -0.00592578      -0.00011796
Na       7.86291754       4.17760821       6.70390484        0      -0.01342339      -0.00343734      -0.03402194
Na       3.39015633       6.39470605       6.05145790        0       0.00059661      -0.01617923      -0.02490277
8
Lattice="10.0 0.0 0.0 0.0 10.0 0.0 0.0 0.0 10.0" Properties=species:S:1:pos:R:3:tags:I:1:forces:R:3 unique_id=3563089cc7fc4b429e3e532a7a921bef key_value_pairs="_JSON {\"extinct\": 0, \"origin\": \"MirrorMutation\", \"raw_score\": 35306.0642202093, \"generation\": 0, \"relaxed\": 1, \"gaid\": 87}" data="_JSON {\"parents\": [87]}" confid=87 relax_id=89 energy=-35306.0642202093 free_energy=-35306.0642202093 pbc="F F F"
Na       2.89973227       5.14578447       3.36939031        0      -0.01833693      -0.01242465      -0.00076177
Na       4.72117260       2.34421218       3.57776347        0      -0.00201564       0.02194510      -0.00538116
Na       5.20497275       7.53481182       3.31398155        0       0.00852285      -0.01327088      -0.02558476
Na       7.04027216       4.74942926       3.54874277        0       0.01333335       0.00127963      -0.01758667
Na       2.78384911       5.33771675       6.67886603        0      -0.01891262      -0.01177144       0.00550536
Na       4.60463844       2.53731261       6.90274878        0      -0.00206550       0.02306961      -0.00018121
Na       5.09102815       7.72429143       6.59566571        0       0.00645634      -0.01113378       0.02567587
Na       6.92532868       4.93970949       6.82909717        0       0.01322734       0.00251291       0.01833244
