11
REF_energy=-258.8988327412140507 charge=-1 Properties=species:S:1:pos:R:3:REF_forces:R:3
Mg	0.2582254728510521	23.7893502970157371	-10.9163673318903101	0.0000544440829633	-0.0000924968448514	-0.0000491192831912
Mg	0.6467969557297624	25.5646716802404761	-13.5684122804017839	-0.0000985828217538	0.0000930111218389	-0.0000580828562078
Mg	2.9396358509065932	23.8291962886314330	-12.5604168951656696	-0.0000019502703924	-0.0001186762306121	0.0000294908855412
Mg	0.2245684614068646	22.7125153712198014	-13.8693128862167541	0.0000909932996592	-0.0000569467333613	0.0001477466034273
Mg	2.3628680594762934	24.0696625378910589	-15.5167511827763107	0.0000470042732196	-0.0000613834822138	-0.0000347356867019
Mg	1.4735271316312593	21.1905412263868449	-11.5832168344496580	-0.0000663911408627	0.0002374633162717	-0.0000334252189612
Mg	4.7354882049698048	21.7292193690051327	-11.5355064801306195	0.0000016320983494	0.0000933993214217	-0.0000417930075223
Mg	2.9660993601604257	23.2114648253789575	-9.6192486684268506	0.0000262192161561	0.0000283342186933	0.0000628232835783
Mg	1.0559162217901401	18.5981883529957877	-10.2109048426706526	0.0000868450089327	-0.0000189494712603	-0.0000071271923481
Mg	3.3965102190292753	18.9152947022820435	-11.9969213843495783	-0.0000645669158170	0.0000383489454959	0.0000206993504945
Mg	3.4285148490411670	20.2087376994997605	-9.2826849870527024	-0.0000756468304543	-0.0001421041614228	-0.0000364768781089
11
REF_energy=-259.3828337833722344 charge=-1 Properties=species:S:1:pos:R:3:REF_forces:R:3
Mg	-0.9533142295357707	21.6107406918707809	-15.5791306147061377	0.0000258526345559	0.0000271986291197	-0.0000239695684346
Mg	1.2266466288172679	23.2473494336683295	-14.5332083409300203	0.0000578335954031	-0.0000565806464019	0.0000490130771310
Mg	1.5826260156712801	23.4284957155862656	-11.3655020872786245	0.0000586617258264	-0.0000882069400574	0.0000530641876072
Mg	3.9049700911849428	20.0717318966492222	-9.9101291799827038	-0.0001808809297842	0.0001772655071126	-0.0000022620906741
Mg	0.9171839242772816	20.5619044937160815	-10.7917363903080261	-0.0000563366249473	-0.0000471017610631	-0.0000642047889138
Mg	0.4053934837974515	19.7107438252414404	-13.8278309628462690	-0.0001698866131219	-0.0001033202725962	-0.0000014173487414
Mg	3.0920744921708621	21.1777583380029419	-13.0048479642765464	-0.0000414000687712	0.0000966149997678	-0.0000121189401881
Mg	3.8601682118637277	23.9043827990493973	-13.1847341918998922	0.0000026093709408	-0.0000204434279858	0.0001335845998066
Mg	2.6011864132243643	18.5271173678810896	-12.1113164267223947	0.0000103133729298	-0.0000805014049398	-0.0000776402032299
Mg	-0.8756716424365703	22.1831638247421843	-12.6260633036711525	0.0000264102515970	-0.0000715742842245	0.0000067086219571
Mg	4.5425385375408345	22.8608339493465955	-10.4650166355575163	0.0002668232853716	0.0001666496012687	-0.0000607575463198
11
REF_energy=-259.6583152527205129 charge=-1 Properties=species:S:1:pos:R:3:REF_forces:R:3
Mg	-1.7284585092219158	23.5693104491691479	-10.8512593648528348	-0.0000191095860024	-0.0000048482618622	0.0000329369371677
Mg	-1.0177260090239244	20.9804049241997141	-9.7776947581557874	0.0000243916012754	-0.0000179741174040	-0.0000137778670942
Mg	0.4803167732023242	24.0766906294961700	-12.8787050672443986	0.0000095916515104	0.0000098046572198	-0.0000367130292018
Mg	0.3077315232608598	25.6778958846729424	-10.3855459149552036	-0.0000212761246846	0.0000468745198283	0.0000166863359104
Mg	-0.9290646191602897	21.5545246295833728	-12.7648025568096930	0.0000333430541199	-0.0000408223630339	-0.0000236952682752
Mg	2.5639725824160409	23.7727086103616827	-10.6847618958206283	0.0000392041955166	-0.0000015361201026	0.0000217575370890
Mg	2.1082743475682229	21.6983428543951042	-12.6469524882081821	-0.0000067339772141	0.0000206905584461	-0.0000170207176840
Mg	0.8699991148617811	16.2977986870687879	-12.1787046714742804	-0.0000231808805807	-0.0000254398358818	0.0000119012089973
Mg	2.0196108303207421	21.1242328566199760	-9.6599724075208595	-0.0000126412411171	0.0000291553220954	-0.0000071713969221
Mg	0.6560909963841053	19.3064407674013658	-11.5997748861378902	-0.0000258317508480	0.0000153960963013	0.0000128764732647
Mg	0.3550217999390667	23.2653286034903779	-8.6573118457163272	0.0000022430580245	-0.0000313004556065	0.0000022197867484
11
REF_energy=-243.4406954563947636 charge=2 Properties=species:S:1:pos:R:3:REF_forces:R:3
Mg	-27.2369285379430224	39.2624948836089729	21.9567368983773612	-0.0000205538870461	0.0000367612181113	0.0000782200605857
Mg	-25.8321698799542432	37.7610728881890552	24.1346123864878130	-0.0000934822993107	-0.0000245161083478	-0.0000294482469345
Mg	-22.9035403508966589	38.6193242458219785	24.5623922719829153	-0.0000585900136656	0.0000232213782912	-0.0000020118773986
Mg	-32.9358897627095715	40.6820628895496057	21.9401644996558254	-0.0000147385606335	-0.0000195074756024	0.0000167572406219
Mg	-35.8509699028430688	41.2713811185298596	21.1786737815225194	-0.0000213283517880	0.0000826288232271	-0.0000046821732130
Mg	-14.3639346449764140	36.7866242213590056	26.7873299064842350	0.0001708449919583	0.0002495069034960	0.0000437308837585
Mg	-27.8355167087651729	39.9019409971278165	24.7461199585873182	0.0001034633588069	-0.0000518150128966	-0.0000785453974598
Mg	-30.1047202797247984	40.1071637218026069	22.6804337203930402	0.0000085448865046	0.0001099743975814	-0.0000073035139717
Mg	-25.1248593630481771	40.5472241729901697	23.6477353765105072	-0.0000589930668134	-0.0001024718315822	-0.0000342878101998
Mg	-17.2701891082382168	37.4195300948013241	26.0298309220264734	-0.0001515338075734	-0.0000743394222998	-0.0000212128439007
Mg	-20.1066479037583434	38.0279181280259451	25.2909517102557508	0.0001363667495609	-0.0002294428699781	0.0000387836781121
11
REF_energy=-244.2097894760394183 charge=2 Properties=species:S:1:pos:R:3:REF_forces:R:3
Mg	-0.8824164843106034	24.3340382288183115	-10.2724070380733554	-0.0000160013211689	0.0000202686504221	0.0000035883727053
Mg	3.7418809541509579	22.2822477944627870	-11.1440303191566308	-0.0000201713218815	-0.0000137063559648	0.0000314410611859
Mg	1.7678447252321992	25.1875229548306798	-11.3534932033223068	-0.0000015119873380	0.0000048146161604	-0.0000165137976905
Mg	0.7387649250034640	22.2810059523308546	-11.7287755095367281	0.0000135322605870	0.0000038597728418	-0.0000050164092792
Mg	2.8349776184566395	23.4199003973233459	-13.8212916095106237	0.0000148746817815	0.0000030225021288	0.0000283204302389
Mg	1.7518014521644414	22.8706123717102514	-6.0943393980771532	-0.0000562399116447	0.0000267761230159	-0.0000196949507064
Mg	1.7951221461904605	23.4046472528971918	-8.9718942405100979	-0.0000458791646372	-0.0000132075262916	-0.0000060519606926
Mg	-0.4902504752102720	24.6160714629044328	-13.2828024361867545	0.0000185982600995	-0.0000254635582509	-0.0000206079337875
Mg	0.3906817855977183	22.1794271191288281	-14.9459144639487462	0.0000298629878517	-0.0000000032821798	0.0000037877133554
Mg	1.8071953448168896	22.4268694305262954	-3.0894483312305430	0.0000839296522993	-0.0000233945439762	0.0000090535356551
Mg	2.4358428481506240	20.4683409252864728	-13.3602787544261936	-0.0000209941359487	0.0000170336020944	-0.0000083060609843
11
REF_energy=-258.6982437919625681 charge=-1 Properties=species:S:1:pos:R:3:REF_forces:R:3
Mg	2.2604035035184658	-3.2392472300441639	-1.8415295405930925	-0.0000260828244077	-0.0000571014748069	0.0000498032499182
Mg	1.8219734384498607	-1.3093104268193836	-3.9921573628708513	-0.0000506415387472	-0.0000110078773843	-0.0000118676129928
Mg	4.1578180549940917	-2.0502517758786740	0.3644293593026116	0.0000348763334848	0.0000161811294956	0.0000245420243380
Mg	1.8075430056152049	2.7460915396184165	3.3203834147648803	-0.0000331043295383	0.0000407286883284	-0.0000278283037531
Mg	3.2607553103904521	0.1750628456477639	2.1229020323352699	-0.0000327633936511	-0.0000332403892198	-0.0000267450037105
Mg	4.5681422981786248	2.8749966949934120	2.3598639120759377	0.0000183290680898	0.0000353781664687	-0.0000232666245948
Mg	4.4697496858567627	-1.4884314282664584	-2.6245843281873209	0.0000703326894128	0.0000218234168052	-0.0000509708708163
Mg	3.8983462538203284	1.4422312545069957	4.8919717533324949	-0.0000085791772605	-0.0000821335770864	0.0000336336332349
Mg	2.3949167093699235	2.4965525718960455	0.2428676652056097	0.0000211241082573	0.0000358691428199	0.0000172820783301
Mg	4.9202517484591741	0.8448470744881333	-0.2732747230110141	0.0000121719087848	-0.0000003422406818	-0.0000073790164903
Mg	2.2298896391624972	-0.1304438004024100	-1.1425497205094906	-0.0000056628444246	0.0000338450152612	0.0000227964465367
11
REF_energy=-243.7598152130296967 charge=2 Properties=species:S:1:pos:R:3:REF_forces:R:3
Mg	-1.1608531937578153	24.1960720399057330	-7.7788044389527862	-0.0000681080697054	0.0000098247130056	0.0000873743604377
Mg	1.3353153994412643	24.5795846816010553	-3.7608472605291885	0.0000654888870020	-0.0000120705843818	0.0000089791454286
Mg	1.4925182263926977	22.8221728124733829	-6.1782922154075361	0.0000273736366993	-0.0000749397819889	-0.0000475852615335
Mg	0.4703620862446135	21.9345091593540538	-8.9008174953542554	-0.0000543899354426	-0.0001329615290141	0.0001199686441299
Mg	2.9564774276441712	20.5374435967904923	-7.5832121855386996	0.0000154600275277	0.0001693379132397	-0.0000348913666521
Mg	-3.6856226588318788	23.7543711294924584	-11.9515913166372147	0.0000993868130990	0.0000072445601093	-0.0000982965677104
Mg	1.8044586950228416	19.6513007684431606	-10.4893499262431611	0.0000026723335712	0.0000416481723713	0.0000034583623563
Mg	-0.5832437134392460	21.0725014561720734	-11.6603947348350818	-0.0000627471228386	-0.0000108247365400	0.0000035701722973
Mg	-1.0194364612367357	25.7655001162357564	-5.2253420144511606	0.0000010281081144	-0.0000033978216504	-0.0000220303517910
Mg	-0.7567548608043290	23.9959661233391621	-10.8069362613446316	-0.0000021254155248	-0.0000537791922019	0.0000058815222932
Mg	-2.5223092536259593	22.0917927628491988	-9.5373344456542331	-0.0000240392625021	0.0000599182870512	-0.0000264286592561
11
REF_energy=-244.3611551148080991 charge=2 Properties=species:S:1:pos:R:3:REF_forces:R:3
Mg	-0.3700015488108829	11.5168374908969415	-12.6055120514941326	-0.0000052322158213	-0.0000158062758699	-0.0000427927415543
Mg	8.9823473110960208	9.2116834586545160	-10.5179406468368946	0.0000759407260519	0.0000776531243142	-0.0000256230349619
Mg	1.7939954144900487	9.4704698596409074	-11.6855183016289566	0.0000158251692349	0.0000679333396190	0.0000088668241536
Mg	6.1150106381866491	8.2643313299785639	-10.8824931985785049	0.0000833267850223	-0.0000097143609205	0.0000193602117784
Mg	4.4453585463788148	10.7866088072820059	-10.9888621653372631	-0.0000159448743922	-0.0000589428247574	0.0000813680528659
Mg	6.9666390491914347	10.8845651177851579	-9.2699706535986444	-0.0000140155368583	-0.0000529336382497	0.0000159057201157
Mg	-1.6789171188863374	10.3654631993280919	-15.0199993889104082	0.0000303093052533	0.0000983099806070	-0.0000575982111752
Mg	1.1901502418187093	9.5722332814473496	-14.6451014349577946	-0.0000650734318884	-0.0000539427394898	-0.0000404425904397
Mg	4.2658442735986197	9.1587223093261976	-13.5220323568386327	-0.0000227096713771	-0.0000541686266073	0.0001173353763243
Mg	7.0901493959695436	10.5815187410959908	-12.4509853041685030	-0.0000278607050707	0.0000043252738007	-0.0000866821999483
Mg	2.6650231194174330	11.7946826764865751	-13.2336763482268580	-0.0000545655501544	-0.0000027132524463	0.0000103025928415
11
REF_energy=-242.4421447820879791 charge=2 Properties=species:S:1:pos:R:3:REF_forces:R:3
Mg	2.9366809399920295	1.7319300864366376	2.2598044714211567	-0.0000400143124446	-0.0000620578482658	0.0003028587835217
Mg	3.6789223096478030	4.7421733278862801	2.3949056281926637	-0.0000555757962469	0.0001444566323281	0.0000372722014785
Mg	6.0663457441344395	-3.0427380226551990	1.3221335711967692	-0.0000189549613528	0.0000268288168184	-0.0000964351557037
Mg	7.2140219225683655	-5.0331892104189935	3.1115088169325644	-0.0000123383552535	0.0000530862291073	-0.0000771325744786
Mg	5.2113130052442092	-0.2967618088977548	1.6506409849341956	0.0000900200902524	-0.0001574852231791	-0.0000177923932537
Mg	5.7375535501183377	-4.1248740621540421	-1.3742806530435967	0.0001077747268045	0.0001293734243710	0.0002249734445382
Mg	3.8248231379533806	-5.6226956965823236	-3.2061777729571208	-0.0000493045460897	-0.0000274068335544	-0.0001197136296274
Mg	8.4001346123386487	-7.0677752443519957	4.9775072946656724	-0.0001517521423392	0.0001014786200688	-0.0001001922892521
Mg	9.6136179378359419	-9.1247789069388734	6.9166206726197705	0.0000619092542936	-0.0001121430039452	0.0001154188663830
Mg	7.0895181055735241	-4.4799018791407859	-4.0761415135367454	0.0000597078431703	-0.0000510641455311	0.0000191802131479
Mg	5.9404807427737101	2.7247656401883016	1.7229432427529254	0.0000085281992059	-0.0000450666682181	-0.0002884374667538
11
REF_energy=-257.4244074811825271 charge=0 Properties=species:S:1:pos:R:3:REF_forces:R:3
Mg	0.3844645940054599	19.5346788894028975	-13.1667316026934564	0.0000260138932354	-0.0000362446423847	-0.0000046712487529
Mg	3.0726772727829674	21.2057897674489908	-12.5293806897884235	0.0000678510204100	-0.0000017686136244	-0.0001006940715448
Mg	4.9950667261239641	23.2996332228465519	-11.1475323652839862	-0.0000061446146521	-0.0000519313623274	-0.0000273092699967
Mg	-0.8926804245525881	22.9445804464855527	-9.9059084991186523	0.0000170131762438	0.0000158894138652	-0.0000105730142820
Mg	0.8084804948114924	20.4408680564990775	-10.4514250862785740	0.0000036308835488	-0.0000100848035818	-0.0000145460072548
Mg	-1.8307737218116962	20.3740750180354873	-8.6809983400851713	-0.0000374289524612	0.0000659661080396	0.0000328929805198
Mg	2.1590194144353219	23.2573970974703137	-10.1882123339096093	-0.0000071749280311	0.0000139637740786	0.0000492341220300
Mg	-2.0597756533810667	20.6308565923703569	-11.7480952952788957	0.0000072965289288	-0.0000811664748683	0.0000116175754804
Mg	0.8200101908957262	21.7480248287265958	-7.8470079662913097	-0.0000268362437509	0.0000044986819713	0.0000037406726917
Mg	0.3070720428090475	22.4614845866837243	-12.7290416445796843	-0.0000210967394369	0.0000543066365955	-0.0000030074792459
Mg	3.0277284085648772	24.0326072516773195	-13.2014411225236756	-0.0000231240240346	0.0000265712822364	0.0000633157403553
11
REF_energy=-243.8200597378217935 charge=2 Properties=species:S:1:pos:R:3:REF_forces:R:3
Mg	3.7107159670619887	0.4136935569858773	-2.4802511773607225	0.0000181658023663	-0.0001075406865382	-0.0000448076659140
Mg	8.3537054535069508	-5.5625630038916478	-0.3173110031777807	-0.0000511722686536	-0.0000338720601509	-0.0000384021030081
Mg	10.6798628786638723	-6.5699327001604297	1.3565907465741776	-0.0000334003437404	-0.0001620384535368	-0.0000583962949382
Mg	7.8765115500343459	-6.4023611227354476	2.5224769084760315	-0.0000813714320686	0.0000066738598005	-0.0000741862301137
Mg	6.1778322295481471	-3.9738732512641852	1.2538987457415121	-0.0000431019674108	-0.0000652947134297	0.0000440296190037
Mg	10.5226904712166700	-10.5923086844246175	5.3411472076019102	0.0000284620807159	0.0001703544499456	0.0001142441377021
Mg	9.7112034562898533	-8.6861146463235883	3.1879378945459331	-0.0000303449703232	0.0000274116678631	-0.0002087296556196
Mg	8.6232862066262310	-8.4914382179774162	0.4409950368745413	0.0000241987406789	0.0000471149908766	0.0000600629968941
Mg	4.7396652610174037	-1.6482717969368970	-0.4686481304052185	0.0000463828693250	-0.0000446351347724	0.0000774438141108
Mg	6.9867030968944688	-3.4180699279379048	-1.7681750346286482	0.0000789384537219	0.0001059297744355	0.0000179481665369
Mg	5.8627990889765398	-1.3007436534288481	-3.6807542099282893	0.0000432430353887	0.0000558963055068	0.0001107932153459
11
REF_energy=-244.3208329308340865 charge=2 Properties=species:S:1:pos:R:3:REF_forces:R:3
Mg	-24.3026379034557856	37.5669239268874477	24.6691575846266851	-0.0000176329698534	0.0000456962340157	0.0000488938429143
Mg	-21.2560171351526002	41.4713615002029599	23.6318001518562824	-0.0000035229503363	0.0000159852947296	0.0000034022096125
Mg	-24.5176930004220601	34.5151149621686102	24.5599966639784526	-0.0000526234595906	0.0000326300887096	0.0000062118259912
Mg	-26.3199807736281812	38.8628567456553853	22.9149975130509382	-0.0000140222593503	-0.0000276647117190	-0.0000401896361551
Mg	-22.9441979223806527	39.1710519761667157	22.4385871976796771	-0.0000086309772251	-0.0000121233032366	0.0000106326748475
Mg	-23.8661013743008645	33.7094403478343736	27.3117310283468022	0.0000001883997514	-0.0000318128422449	-0.0000412994155577
Mg	-24.9952318078141147	41.3629239841684253	21.9563742240932207	0.0000015396768621	-0.0000265526467909	-0.0000215572666820
Mg	-25.6468214112427155	36.0190602948108349	26.9413834674873307	0.0000439138718595	-0.0000290683388371	0.0000215958760700
Mg	-22.4696592697745423	36.0807936193717751	26.4719810218755143	0.0000046171314473	0.0000165661647291	-0.0000089945681620
Mg	-24.0164612617815578	40.6180047633198313	24.7373377173844027	0.0000574830916077	-0.0000018239184136	-0.0000153145173376
Mg	-21.4597030106626754	38.8401423290024468	25.1940583714582864	-0.0000113095551723	0.0000181679790581	0.0000366189744589
11
REF_energy=-243.0431457646286901 charge=2 Properties=species:S:1:pos:R:3:REF_forces:R:3
Mg	6.9006429333824686	-1.1769799714579898	-4.6712439027700734	-0.0001021726096390	-0.0000859664929524	0.0000993359527255
Mg	6.7402932950853538	-6.4039727303997402	0.5175483187873052	-0.0000296302206185	0.0000750827791731	0.0001131973347503
Mg	-1.0958009330802274	1.8671001287639561	0.8868757358461440	-0.0001193552722898	-0.0001340048833909	0.0001997843728304
Mg	2.9971649814217378	-4.6659220067585387	-3.8161097345026787	-0.0000251494659210	-0.0000479385544559	-0.0000526279939594
Mg	0.6795646298879603	-0.3840887213095101	-0.3154031138765284	0.0000021660684154	-0.0000165180924209	0.0000366684826714
Mg	4.9032355804675207	-2.6016468702564963	-3.0753159067018583	0.0002415670989858	0.0001304749756488	-0.0001974953161584
Mg	4.6582711365785920	-4.9610830211289896	-1.2868858379892152	0.0000486136282529	-0.0000014441476726	0.0000639812238823
Mg	1.7516085366839851	-5.5168092541013545	-1.3383508895886318	-0.0000478574375055	0.0000150511920029	-0.0000456298907564
Mg	-0.2051408414727584	-7.7291325183097754	-0.7697349165125938	0.0000276344264444	0.0001371664733138	-0.0000301791764665
Mg	2.3384212868794814	-2.5996515467521735	-1.5319947159684304	-0.0001069046234493	0.0000308633455551	-0.0000696076976428
Mg	8.9664736567113614	0.2195635375339322	-6.4407282117987634	0.0001110884073246	-0.0001027665948010	-0.0001174272918764
11
REF_energy=-258.9077249927865410 charge=-1 Properties=species:S:1:pos:R:3:REF_forces:R:3
Mg	-0.2258056138813192	21.3337420611473547	-13.0110031405453288	0.0000909340139202	0.0002072792014309	0.0000007502730442
Mg	2.2848613748670523	20.4542393536983376	-11.6523925218142104	0.0001539047229645	0.0000044746169078	-0.0001002764189850
Mg	2.5440708738196807	21.6526292697116212	-14.5533722849521947	0.0000654828730025	-0.0001160516977769	0.0000714075647826
Mg	2.9297722093882430	23.1827141825433003	-9.7673605920015572	-0.0001587905229142	-0.0001648266387203	-0.0000561064642055
Mg	1.2932508294774441	18.9605095551826963	-14.0398093185522121	0.0001158859855626	0.0000915459043353	0.0000175647899046
Mg	-0.3020333685628972	20.7013062782306463	-15.9260044425520597	-0.0002670293114931	-0.0000411700341592	-0.0001223530861511
Mg	4.4762237156572180	20.7133506051026153	-9.6512613700124543	-0.0000177454076564	0.0000853632719834	0.0000815273599088
Mg	1.7628448441032623	23.7732978098078718	-12.6012417896090820	0.0001634805930195	0.0000418471391189	-0.0001282958977121
Mg	4.4943763466731426	22.5449650090453204	-12.1581907326434049	-0.0000395185604013	-0.0000818196247830	0.0001566101980996
Mg	-2.5323001544463422	22.3623913913308101	-14.6284974684825251	-0.0000146452970930	-0.0000829156254129	0.0000974557519050
Mg	0.1384558833396347	23.6246825718669946	-15.0926446088225479	-0.0000919590889113	0.0000562734870762	-0.0000182840705912
11
REF_energy=-244.4573988195780601 charge=2 Properties=species:S:1:pos:R:3:REF_forces:R:3
Mg	1.9744899513756307	22.7412176824712162	-9.9566098959568556	-0.0000832939405875	0.0000220849291392	-0.0000526047178638
Mg	1.3777616194897155	22.1138747814911980	-13.4444895382083605	-0.0000637048190972	-0.0000021487261872	-0.0000397443775648
Mg	-1.3045203269790229	20.7728195449801838	-13.3302080531134042	0.0000780768287953	0.0000581743743928	-0.0000480558659856
Mg	0.0542522882377063	20.2095020490766686	-10.6940373251883347	0.0000442589300616	0.0002060598159876	-0.0000884059614374
Mg	2.9179213120219876	20.3954164175879384	-11.5778296018054192	-0.0000689883178588	-0.0000611750941211	0.0001743275931430
Mg	0.0028307320104025	21.5555397179713246	-7.9676045948497629	0.0001133981583555	-0.0001593340737298	-0.0000216650362140
Mg	-1.7411074929789339	22.1852833183335747	-5.6046540508524547	0.0000434149942707	0.0000823146567139	0.0001027164603219
Mg	4.1594254438593428	23.0135830072216727	-12.2661075683296747	0.0000892428155188	0.0000646611814248	0.0000438116270360
Mg	1.0866053230671993	18.9756180366369946	-13.4492935769453101	0.0000781313219310	-0.0000692582610916	0.0000987435857150
Mg	2.4285090289337221	19.9394720900270883	-8.7319533373750549	-0.0001071682578802	-0.0000666297502275	-0.0001605236833392
Mg	1.7578341121829519	24.7974521365359841	-12.1562392667685604	-0.0001233677135091	-0.0000747490523010	-0.0000085996238112
11
REF_energy=-244.1734014816560148 charge=2 Properties=species:S:1:pos:R:3:REF_forces:R:3
Mg	7.0909043938522451	-0.7429099597382428	-0.2531450773974822	0.0000443401044896	-0.0000087458491292	-0.0000790803618871
Mg	6.5610883259195347	-8.9815749345559741	2.2303351651414531	0.0000066082251486	-0.0000245349515269	0.0000000648145718
Mg	7.5065055993649210	-2.9655074873290550	1.8900492488057146	-0.0000137099467225	0.0000096420147116	-0.0000126598367200
Mg	6.8113866584137934	-6.0673397210101854	2.5868798520868559	0.0000019613435757	-0.0000008149386841	0.0000054171410598
Mg	9.9036088321352480	-1.5183001788980675	-2.6845624165451083	0.0000111367748683	-0.0000262237656063	0.0000905026092579
Mg	5.7040732952046183	-4.5956392332785567	0.1391660454554244	-0.0000945197049052	-0.0000142145149790	0.0000610087157455
Mg	4.2560945744257994	-7.0895825263645076	1.1024318564299533	0.0000099116522859	0.0000275927263682	-0.0000071789449390
Mg	8.1567624312129450	-3.4132067306985747	-1.1116126344204551	-0.0000642056759313	0.0000265727569545	-0.0000486153469320
Mg	9.4207313979029923	-8.0906649997680073	1.9951683346549287	0.0000102092230926	-0.0000118108504778	-0.0000378670957155
Mg	9.2332834390188783	-5.2929788958958284	0.9459064372688061	0.0000383938297255	-0.0000206701480193	0.0000130552814102
Mg	7.1932497453070088	-7.4403696016487055	-0.1126796064936228	0.0000498741743728	0.0000432075203884	0.0000153530241484
11
REF_energy=-243.4547355759819425 charge=2 Properties=species:S:1:pos:R:3:REF_forces:R:3
Mg	-8.1994903027191945	11.0067217104092308	20.2509011348741410	0.0000519366343442	-0.0000689515301081	-0.0000443675618035
Mg	-10.9886993088342138	11.1293591469968671	19.1290685303368662	-0.0000833768121501	0.0000383267007318	-0.0000117255666007
Mg	-13.7967431021263973	10.7143342406567204	19.9579776541610627	0.0000910009878705	0.0000723270439173	0.0000272743975055
Mg	-23.5423482828809441	13.4495608378127400	16.7756253298620912	0.0000028083042180	-0.0000318629492466	-0.0000358260191679
Mg	-20.8758906074571016	13.9958283173259410	18.2439324181344276	-0.0001333886930658	0.0000224582870816	-0.0000865781715815
Mg	-15.6416674447766901	11.7053428042516501	17.8205182091917855	0.0000092855633498	0.0000210902020219	0.0000650607367461
Mg	-13.0024048704023372	10.3615180230845514	17.0177912703800445	-0.0000456074661779	-0.0000301217690577	-0.0000445262525853
Mg	-13.0577758896292710	13.1060480671434636	18.3838808579689434	0.0000939869431235	-0.0000837575274735	0.0000692480493015
Mg	-12.3033703602494313	8.5520982854243357	14.5959382570813059	-0.0000673340879911	0.0000818614294951	0.0000221608167457
Mg	-18.4475018061690328	12.2764411370020792	17.3714089317550631	-0.0000034640544212	0.0000003713378953	-0.0000083644774729
Mg	-21.1192832679718592	11.7529427250353180	15.9098789808081875	0.0000841526809002	-0.0000217412252572	0.0000476440489129
11
REF_energy=-243.6661069287381451 charge=2 Properties=species:S:1:pos:R:3:REF_forces:R:3
Mg	-10.5021480930243598	9.7406771386365403	16.0260136210196933	-0.0003897536494716	0.0002461685745404	0.0001883896563097
Mg	-8.6449568539794210	9.1660871864041340	13.7515873939596140	0.0001625425252453	0.0000032176029261	-0.0002506760334836
Mg	-12.3158237152691648	10.3000534820492220	18.2486457563987727	0.0001641905792185	-0.0000498446755045	-0.0002963060364148
Mg	-17.2365045037357376	11.7927740928200464	24.3176128386982739	-0.0000070464644686	-0.0000231401553047	0.0000457689191129
Mg	-13.4917104994087751	9.2688853909727946	20.8500185708101426	0.0000339696263591	-0.0001097051723854	0.0000687204954639
Mg	-19.0805658691031752	12.3385796246966795	26.6100224129074192	-0.0000747209481395	-0.0000336328182830	0.0000528596693242
Mg	-12.9586783335430145	12.1485326061178114	20.5691127553352047	0.0000608559693465	-0.0000495676144706	0.0001963029449055
Mg	-6.7400237317164446	8.5765045213565294	11.4170371851991366	-0.0000572475823631	0.0000521772608175	0.0000433174109721
Mg	-15.4317256377419429	11.2508443615669851	22.0834901282170613	-0.0000706104129955	-0.0000466593312724	0.0002005600998741
Mg	-20.9706504385390105	12.8896940948912881	28.9661167679626388	0.0000861257378801	0.0001908325530349	-0.0003203278874210
Mg	-15.1716384380118328	10.9100949336031050	19.0781639167126613	0.0000916946193888	-0.0001798462240982	0.0000713907613570
11
REF_energy=-244.5986103883949170 charge=2 Properties=species:S:1:pos:R:3:REF_forces:R:3
Mg	6.8833751549787090	9.5045742109511213	-10.9233034729967553	0.0000473911073746	-0.0001030914940723	0.0000418926414034
Mg	0.0731936386731849	10.7288317432160927	-9.3616274838538924	0.0001655108319606	-0.0001966199241465	0.0001990958745097
Mg	2.5518849901972871	7.5896035415252907	-13.0398863773908342	0.0000603549778757	-0.0003467492054458	-0.0000790111219694
Mg	3.8727481830720762	5.2451360096994328	-11.7939220188713882	-0.0000289230382566	-0.0000250518813292	-0.0001320442046058
Mg	4.5013524809564540	10.3456962964543866	-12.4758459119194711	0.0001137067429293	0.0000627457857670	-0.0002052008977598
Mg	3.6930241267933903	9.3398487567036117	-15.1501267429344750	0.0001251114435089	-0.0000404351055743	0.0000270336087670
Mg	4.6246373900703279	7.6845740037353094	-10.2697518164989994	0.0001037561772925	0.0001565881548766	-0.0000150886599377
Mg	1.5209361190896140	10.5138750083458614	-13.3815783130190002	-0.0000653296920364	0.0002355468378251	-0.0003128365361556
Mg	2.2460445364831587	9.4519497612135499	-10.7017132739471759	-0.0001125259560706	0.0000259581271052	0.0004880432901934
Mg	4.5868105514907915	10.6850447273341285	-9.3600837595497985	-0.0003481333999923	-0.0000534340831912	-0.0000797137312121
Mg	1.6891025814715086	6.5826055799836807	-10.1976822880252360	-0.0000609191945856	0.0002845427881853	0.0000678297367668
11
REF_energy=-244.2943512046900025 charge=2 Properties=species:S:1:pos:R:3:REF_forces:R:3
Mg	-0.8595445895541693	24.6388839671049347	-7.7289753710817344	-0.0000383744415152	0.0000667270042089	0.0000606675876094
Mg	1.8932908242252211	22.9986249038663253	-11.3654680203926262	0.0001055298324109	-0.0000029592901114	-0.0000649805879306
Mg	0.8550834086712884	22.3726844444884208	-8.3670352423959322	0.0000920091739913	-0.0000703246659679	0.0000709500653250
Mg	1.7838059458412490	20.5366904472423641	-12.9816662780432051	0.0001096552908537	0.0000152608325745	0.0002202508845577
Mg	-2.1361199081746998	21.9905407757915299	-8.4161433085990431	-0.0000622583249028	0.0000443459117214	-0.0000678807305660
Mg	-0.2331634082414200	20.9833603257330275	-10.8429274807145539	-0.0000224174449169	-0.0001660174579101	-0.0000822159026320
Mg	2.7749743986419428	20.3726871044726288	-10.0843173969066360	-0.0000546299097365	0.0000400710940962	-0.0001221954732389
Mg	-1.1047304207514477	23.8791489632346732	-10.5298336027011405	-0.0000626684812663	0.0000817656245484	0.0000782201162473
Mg	0.9574326665936935	21.0126617267028628	-15.7877547747543350	-0.0000355514860463	-0.0000670147413959	-0.0000689319794554
Mg	-0.2963841090974677	22.7350789348692324	-13.4746314620040675	-0.0000134214598091	0.0000187063204741	0.0000022244056776
Mg	4.0085069369354356	18.6616782120970690	-12.4168102277710499	-0.0000178727490630	0.0000394393677619	-0.0000261083855941
11
REF_energy=-255.4979229815693316 charge=0 Properties=species:S:1:pos:R:3:REF_forces:R:3
Mg	-25.9107785518592983	38.6562802248269080	25.5876017144581347	-0.0000345649276534	0.0000932946220823	0.0000217360690185
Mg	-23.6257547149941871	38.9896478813078531	23.4633256506655492	-0.0000628661652212	0.0000090371125092	0.0000176597975308
Mg	-20.8846452938194354	43.6649943971137162	21.5090141439872831	0.0001030833433432	-0.0000251903616921	-0.0001650125391299
Mg	-25.6233735242346121	41.2575440449056146	23.7265769116351350	-0.0000023744167488	-0.0000295198721916	-0.0000154705983338
Mg	-17.4028052920128324	47.9246128915185068	19.7997241752978113	0.0000825595011218	0.0000371115356030	0.0001092254636331
Mg	-24.7827674243523255	36.2284577330605586	24.1424632314859160	-0.0000143150972928	0.0000268092311209	0.0001334635683431
Mg	-16.3664909726160062	45.4491379917604235	18.5342528985372148	0.0000826624431477	0.0001046636761683	0.0000325605805516
Mg	-19.0187008653742105	45.4166866882760658	19.9112291866229327	-0.0001462538641903	0.0000012960276423	-0.0001047370204407
Mg	-18.6701205251577491	46.8780828885406109	17.3293634029253880	0.0000074449987612	0.0000394692661994	0.0000338961851809
Mg	-23.6677252452030054	40.9477162415648621	25.7797127054516260	0.0001502912828556	-0.0000270899449304	0.0000266410963507
Mg	-22.7373781236042163	41.8709800846853284	23.0519557824684824	-0.0001656670981230	-0.0002298812925112	-0.0000899626027042
11