11
REF_energy=-242.5631347332952714 charge=2 Properties=species:S:1:pos:R:3:REF_forces:R:3
Mg	-1.5580238622782443	26.2090897523951192	-6.8003855094104564	0.0000864924002036	0.0000559577635188	-0.0000534272252160
Mg	-0.5755956657246939	24.8864984309931749	-9.4239297742731747	0.0000242223214351	-0.0000195260084513	-0.0000112570173021
Mg	-2.3277611687711066	17.7422874672226776	-12.0383387044671011	-0.0000065840066427	0.0000193304460304	-0.0000207961239334
Mg	6.1532292727522924	21.3558113112429560	-13.0012830997725839	-0.0000339228974447	-0.0000074951052543	0.0000424303662550
Mg	8.9452201692192670	20.6955885471223198	-14.1359814884750019	0.0000514781991934	-0.0000203620829870	-0.0000061491269246
Mg	3.4489595712185559	22.0569612705525735	-11.8764174326066492	0.0000297027352326	-0.0000097414342160	-0.0000158213078951
Mg	-2.1683628635442802	27.5423730796151069	-9.5332144910333820	-0.0001320770413593	-0.0000574003455955	0.0000202442696749
Mg	-3.1030090045240852	28.8511908932374155	-6.9251510137656975	-0.0000142845804335	0.0000341425424170	0.0000042286453166
Mg	-4.5338166815585268	31.1388182355157745	-5.4944188685717936	0.0000302147500672	-0.0000410129062044	0.0000136930087331
Mg	-0.6853085545515301	20.3151599947185062	-11.4037093171603949	0.0000151575222225	0.0000396141229934	0.0000048664762482
Mg	0.8483728148058766	22.7753810434661261	-10.7796595724350119	-0.0000503994024742	0.0000064930077489	0.0000219880350433
11
REF_energy=-244.0938850941642784 charge=2 Properties=species:S:1:pos:R:3:REF_forces:R:3
Mg	2.5197391839690417	20.9674095917112986	-11.8165694867434485	0.0001322502027622	0.0000009207765557	0.0001734150309899
Mg	1.6285458987668224	26.3141683917570184	-10.5803644632638694	0.0000902960084117	0.0000859749241056	-0.0002870349759666
Mg	3.8312821381018383	23.6800780257001762	-12.0901354542271218	-0.0000724195906463	-0.0000247752490106	-0.0001892193143328
Mg	4.4348410708664492	25.7382920189798945	-10.0854820352917720	-0.0000721762414367	0.0001757576502245	0.0001845239245983
Mg	-0.2286432432377734	21.1782306815528756	-13.2780615094288166	-0.0000366223731801	-0.0001656450835534	-0.0000441396433967
Mg	0.8806788470754490	23.6170556214000484	-11.9356099147432566	0.0001016159575097	0.0001194043800782	0.0001578323448592
Mg	2.4114531164310584	23.3966382702446829	-9.3936367591864034	-0.0001372442751856	-0.0000594420153663	-0.0000656314538686
Mg	-0.0665730390170403	18.7148640370017922	-11.7253049279966017	-0.0000494344786025	-0.0000284574411175	0.0000748891201543
Mg	-0.0859889994924907	21.3191225394437005	-10.1193205970369373	-0.0001215877129361	0.0000631670340754	0.0000473906208138
Mg	0.4363270802848099	22.1707706415453458	-7.1961271221931886	0.0002270523940383	-0.0003324494079006	0.0001120642809797
Mg	-2.7248013854639721	20.7252203622734399	-11.6071704278359000	-0.0000617298907346	0.0001655444319090	-0.0001640899348305
11
REF_energy=-243.6295964731751553 charge=2 Properties=species:S:1:pos:R:3:REF_forces:R:3
Mg	13.3778246718789440	-5.4848997806708812	0.3118562063141606	-0.0000006397868007	-0.0001293350905224	0.0000551535961044
Mg	2.0575512597091921	-3.2084846002022394	-0.6558027372137574	0.0001499638136759	-0.0001662268119051	-0.0001153198517082
Mg	7.7205610953605266	-3.9416102815900000	0.5491992117459118	0.0000904137759669	-0.0000711922073599	0.0000850309647652
Mg	4.9742787623761062	-2.9523001334855050	0.3650773054840775	0.0000542147079071	-0.0001688827892094	-0.0000903995408911
Mg	10.5260666309466124	-4.7418053437525005	0.4743068974341376	-0.0000841476474115	0.0000469445829542	0.0001937932971469
Mg	2.8198522507272359	-3.8588399563543465	2.3110399723476194	-0.0001469887905416	0.0001411956741537	-0.0001136317769248
Mg	19.2231907048353499	-6.9661092307330383	-0.0733944651792918	-0.0001599734330953	0.0001751866172191	-0.0001504622589023
Mg	0.2803103982896958	-2.5468985890107652	1.6459425135151489	0.0001607110335242	0.0000841318186995	0.0000596960629341
Mg	16.2638586363764972	-6.2184198410140104	0.1241723130555605	0.0000356385572750	0.0000065837425214	-0.0000091157319153
Mg	2.7500272614195365	-0.9456559346464243	1.1651602968546568	-0.0000355211187251	0.0001978101003124	0.0000778555340762
Mg	5.6990275908150307	-5.0434154017396171	2.6915759421486372	-0.0000636711117747	-0.0001162156368634	0.0000073997053148
11
REF_energy=-244.3552626579879643 charge=2 Properties=species:S:1:pos:R:3:REF_forces:R:3
Mg	-15.5693036589996634	11.8462184258283667	21.1715814832531102	-0.0000004594249472	0.0000877827560911	0.0000656905562043
Mg	-15.5772762526829194	7.4969668456606628	18.3942237653551253	-0.0000253878492107	-0.0001427248243246	-0.0000159086046820
Mg	-14.4300571591944760	13.5476749911953913	18.9884357806174435	0.0001091571347710	0.0000223060292089	0.0000176478785518
Mg	-14.4256296547795291	9.1633437620665070	20.5519528603086208	-0.0001338404408751	-0.0000097075665989	-0.0000949813829180
Mg	-17.2499601343967974	5.2316805701751639	17.2639482872964471	0.0001206519131496	0.0000106805398722	0.0000979410806567
Mg	-12.6071651431935496	11.5235133976625015	20.1991449412583748	0.0000386750562871	0.0001410692298256	-0.0000652710789885
Mg	-12.5126894506779482	8.5963677699221197	18.4124149311231911	-0.0000913248140242	0.0000867344945785	-0.0001414166221097
Mg	-15.3196032376393614	10.7383964107847714	18.2537737699529004	-0.0000385200694314	-0.0001014960165613	-0.0000182073208183
Mg	-10.0957341607919524	10.2431841756757223	19.2304755443413562	0.0000240315209736	0.0000088490186461	0.0001258905237772
Mg	-11.5872212250194142	8.8128261159523849	21.3956988408646609	0.0000385681130116	-0.0001548465365628	0.0000376317742431
Mg	-14.3479266862136541	8.9330476547209816	16.0614834474542363	-0.0000415511397044	0.0000513528758252	-0.0000090168039167
11
REF_energy=-257.4266146171735272 charge=0 Properties=species:S:1:pos:R:3:REF_forces:R:3
Mg	3.9930381022729415	19.8761820150375534	-10.7619996169720107	-0.0000324563679880	0.0000076379112341	-0.0000428050985163
Mg	1.0512286143452581	22.4153220535235143	-13.6067518027115053	0.0000070456937012	0.0000327747023180	-0.0000120906766523
Mg	2.2810172690326436	21.4854961991636877	-8.8945435357722573	-0.0000631769357034	-0.0000035105068784	-0.0000469886253471
Mg	-1.8835137242100137	22.3067753013008243	-14.9225065842559648	0.0000041358742739	-0.0000252986122547	0.0000431297017370
Mg	0.9343969229276855	20.0988892434328648	-11.2393470895363556	0.0000751863342164	0.0000738410095284	0.0001366549184769
Mg	0.1938770281467675	23.0366230501576368	-10.6283625535364283	-0.0000179104353546	-0.0000432946569498	0.0000810148231360
Mg	2.7593226655009366	19.9093192229067775	-13.5498492685152776	0.0000906697294667	-0.0000064174958141	0.0000206934347755
Mg	1.5311048940077845	25.0119457160674870	-12.3672995978865021	0.0000252744735445	0.0000392080588776	-0.0000562380524065
Mg	-0.3102321944828558	19.9362594793680685	-13.8961964333254713	-0.0000559637327462	-0.0000190141031538	-0.0001115481360022
Mg	-1.3840722144526918	24.4103000804064045	-12.9807707659377662	-0.0000125098226595	0.0000280332115981	0.0000024911407766
Mg	3.2623027089221610	22.7545929012368546	-11.2797159372319644	-0.0000202948107509	-0.0000839595185054	-0.0000143134299777
11
REF_energy=-243.9911464588646197 charge=2 Properties=species:S:1:pos:R:3:REF_forces:R:3
Mg	1.2479379414639111	22.0595345984344995	-9.5966718102710953	0.0000174944952877	0.0000356446819882	0.0000092266761499
Mg	-0.4133097198750652	20.0627664396809493	-11.3783434801318233	-0.0000155347569041	-0.0001193351107346	0.0000312457192479
Mg	1.3035027281149478	22.0627748528682375	-12.8440611634590880	0.0000443722479849	0.0000232731391109	-0.0000417138143347
Mg	1.1965661550544084	24.5571045222436837	-11.1526694733880145	-0.0000523797509965	0.0000188683004978	-0.0000033255320942
Mg	-2.8277576081222069	14.5964703221698109	-11.2996809046296249	-0.0000348536194694	-0.0000701679433035	-0.0000942944474091
Mg	4.0634933513643343	23.5055058143811912	-11.0920116334724650	0.0000020217431330	0.0000460873537486	-0.0000121924151887
Mg	-1.5141911719739212	17.3391373220391571	-11.3059898989650449	-0.0000103974254575	0.0000459342882072	-0.0000270786497158
Mg	2.6553151430266744	24.8515014274477437	-8.5934713376628817	0.0000776378546189	0.0000437518410937	-0.0000037670710589
Mg	4.1087291719352663	22.4989820985979243	-14.0018211422440579	-0.0000595245269052	-0.0001346957050448	0.0000457511033859
Mg	4.0807555436166538	22.2866570504615282	-8.3631049719422315	0.0000224657216347	0.0000989676111619	0.0000247145275033
Mg	-1.1846945626305445	22.9189154282306617	-11.2586405083272911	0.0000086980170735	0.0000116715432747	0.0000714339035143
11
REF_energy=-244.5063340640676302 charge=2 Properties=species:S:1:pos:R:3:REF_forces:R:3
Mg	-0.3135787263960745	18.6420549717670347	-11.4629608868131854	-0.0000203172352240	-0.0000224745381782	-0.0000228392036405
Mg	3.0266171952071552	21.1750386679828537	-9.8157158786753236	-0.0000877520802493	-0.0000507889476681	0.0000655369524300
Mg	-0.9944298941089296	26.0509292018550020	-9.8987175748856657	-0.0000043107097088	-0.0000122396467037	-0.0000659602777496
Mg	1.1718453909218143	18.8471666497960619	-8.8486915171522380	0.0000383842843802	-0.0000043775901124	-0.0000091318604851
Mg	4.2910007643701631	21.0300579331421389	-12.5256171999417631	0.0000093912781836	0.0000207856237335	-0.0000332504017485
Mg	2.5988838896587545	23.3569678972892483	-11.7367259282376306	-0.0000191501890390	-0.0000021977171943	-0.0000410469997015
Mg	0.9799975338493913	23.6751867383851824	-9.1327520599565730	-0.0000325685981508	0.0000136585591759	0.0000539286751807
Mg	1.3101289614180238	20.9472819222088305	-12.8155950675842849	0.0000492554652421	0.0000832594106677	-0.0000524161071717
Mg	-0.3610963616970935	21.1587127141749924	-9.8955905348690205	0.0000625421298513	0.0000489946332292	0.0001261349537315
Mg	2.7799489511143118	18.6349108337184148	-11.4817521404373668	-0.0000412039165571	-0.0000214475977401	-0.0000215587753875
Mg	-0.4825292497742935	23.4867894167439921	-11.7065529428361401	0.0000457295712717	-0.0000531721892094	0.0000006030445423
11
REF_energy=-256.3717066392447919 charge=0 Properties=species:S:1:pos:R:3:REF_forces:R:3
Mg	0.6033324792929488	20.6913940824666689	-9.4923891683980344	-0.0000978737384806	0.0001222402357077	-0.0000694747013306
Mg	1.0578872720634223	21.9526668414845716	-12.3167724606461775	0.0000739526926360	0.0000662303092472	0.0002333977580720
Mg	-0.3097130433258922	20.2062021265831646	-14.3000796157474852	-0.0000240105950342	-0.0001751442414182	-0.0004442286074460
Mg	-1.5822381741765856	20.0776282124843561	-11.6785936641146844	-0.0000696457991694	-0.0000058134556390	0.0002438841885495
Mg	4.5927688419619335	24.1796596592587427	-9.3488667615936762	0.0000214122652862	0.0001115209463181	-0.0000251998932708
Mg	-2.3260151469178809	20.3099433247306074	-8.7617203084343007	0.0000685476781007	0.0000209310632428	-0.0000271832762251
Mg	3.6620145000880364	21.5684660512053910	-10.5367547626364750	-0.0000185444350473	-0.0001483388390638	0.0000897960868956
Mg	3.6664052792635693	23.9639695186559720	-12.1995580733726570	0.0000473475212002	-0.0000583386702080	-0.0000912897419793
Mg	-0.3738024689078854	19.4228490044769622	-17.3144198835381680	0.0000383607477338	0.0001363430066266	0.0000567595996762
Mg	1.6329220945837188	23.5776836088755672	-9.7619463757958691	-0.0001264789306064	0.0000482752184260	-0.0000525817448699
Mg	-1.3108480873673209	22.7031809846264991	-10.1695028262159628	0.0000869325933811	-0.0001179055732393	0.0000861203319284
11
REF_energy=-244.4609869350293252 charge=2 Properties=species:S:1:pos:R:3:REF_forces:R:3
Mg	-16.7089170241507752	8.1547250490686594	21.0034586498627540	0.0000415986668046	0.0000277119338402	0.0000126368085197
Mg	-11.4644732361676898	7.3529333991004746	20.6679576029578058	0.0000102483002110	-0.0000544139469491	-0.0000191048228113
Mg	-14.2789872964511204	7.7957910171336824	19.2579766251794702	0.0000487330858147	0.0000148450318846	-0.0000009012309126
Mg	-15.3221942595861407	10.7180110461911742	20.1415714320826957	0.0000419235971978	0.0000082556777059	0.0000239811236658
Mg	-13.9967323884688781	8.7056598269512016	22.3299504159610400	-0.0000117492776235	-0.0000012828280230	-0.0000278630983101
Mg	-12.1888505273857692	5.7146278266890427	18.2543717932450029	-0.0000018529539931	-0.0000333480437825	-0.0000181527485921
Mg	-11.6782294691904305	8.5796582879138565	17.6780729224558009	-0.0000551131364055	0.0000012652841106	0.0000024213456566
Mg	-15.6999190866792926	13.8168200075052958	19.9585992184220693	-0.0000672179620032	-0.0000308380570836	-0.0001300258114915
Mg	-14.1190887507888920	10.3877586872635312	17.3237462542629679	-0.0000532774748547	0.0000679542508616	0.0000376280472330
Mg	-12.3976294908511733	10.1439882643445856	20.0931274962249660	0.0000146351051941	-0.0000384593477144	0.0000738916279329
Mg	-13.1118961066404314	12.6831905443378385	18.9073711179390678	0.0000320720496579	0.0000383100451497	0.0000454887591098
11
REF_energy=-244.3144519166777968 charge=2 Properties=species:S:1:pos:R:3:REF_forces:R:3
Mg	-1.4643185880487197	19.9560975964614968	-15.9207658486436721	0.0000170086642371	-0.0000332804129673	-0.0000279059474593
Mg	0.5548621730550611	21.4307858787794352	-14.2602863643012352	0.0000340675373710	-0.0001080299497059	-0.0000317471269196
Mg	1.2094485071446823	23.8331143743382619	-12.3264181128509485	-0.0000397674945000	-0.0000065481752484	-0.0001531260029140
Mg	3.9559023377858695	22.7829573666885636	-7.5904912488709426	0.0000974617835053	-0.0000053619566947	-0.0001689694721840
Mg	1.6034835390250228	22.6843600480044003	-9.5254206371479047	-0.0001407371298602	0.0001614759130308	0.0000635724623576
Mg	2.3426682348549019	25.3140476507476286	-8.1493085426960974	0.0000213436733501	-0.0000789123377118	0.0001439027105351
Mg	-2.2518796669185823	19.8045333651925510	-13.0171476837053994	-0.0000816984173800	0.0000438404080798	0.0000437760292593
Mg	4.0230805948646609	24.0605839378625923	-10.4701727529400426	0.0001013412371596	0.0002206814226286	-0.0000040052556772
Mg	5.2675353140785139	25.3380202899075933	-8.0703525842526567	-0.0000776244593283	-0.0001281704652965	0.0000603883397907
Mg	-0.2105255079294802	21.3062568162001860	-11.3757981340602345	-0.0000283367553438	-0.0000146430816435	0.0000240419640247
Mg	2.7631645010286952	21.3530483451822342	-12.0309748579333284	0.0000969413607893	-0.0000510513644710	0.0000500722991870
11
REF_energy=-258.7603415978126122 charge=-1 Properties=species:S:1:pos:R:3:REF_forces:R:3
Mg	1.3066567934535642	21.5051966247111181	-15.3671980119253870	0.0001787743226545	-0.0000282560809173	0.0000399331415099
Mg	-0.8105968880895214	20.9863454526277451	-13.2797945983719980	0.0000764553621734	0.0001223178690169	0.0000859863816024
Mg	1.4295210751944571	18.8564287634806362	-13.3950672484918041	0.0000044808198906	-0.0000208603303257	-0.0001875478629200
Mg	2.2545047395132243	21.5566021204127338	-12.5146325864371182	0.0001286433403471	0.0000262299857949	-0.0002272857901339
Mg	0.2494349542415260	19.7286849338922075	-10.7438733017008019	-0.0000616666374130	-0.0000568554643458	0.0001511920854085
Mg	-1.5319767326077802	22.2408841979497289	-16.0298644336623575	0.0000150435739087	0.0000772660421070	0.0000651798398102
Mg	3.0142439245955965	24.0642451968620890	-11.1716370022783433	-0.0001426301830724	-0.0000311338339641	-0.0000556519581347
Mg	3.0887122697559524	19.0260335304448738	-10.7937877083709246	0.0001471408654881	0.0000116893142980	0.0000748543516572
Mg	-0.6300948139881303	19.3415108929179631	-15.7836784449049965	-0.0002414708139326	-0.0001158931231854	-0.0000495323594858
Mg	4.8074078897774672	21.6911577766275556	-10.8002633819901845	0.0000350759785341	0.0000145722118785	0.0001073150125872
Mg	2.2404821119745004	21.6968407842834203	-9.3951946931546733	-0.0001398466285786	0.0000009234096431	-0.0000044428419011
11
REF_energy=-244.2188699481007177 charge=2 Properties=species:S:1:pos:R:3:REF_forces:R:3
Mg	2.1582982118412120	21.0553428092845252	-12.1187384614212146	-0.0003503887148413	-0.0000581360766700	-0.0000714402623160
Mg	-5.1469783187241092	17.1169655522188187	-14.1699637278934922	-0.0000608625747972	0.0001614254937999	-0.0000731303125066
Mg	2.2427976091011073	24.1485949865361924	-11.2959781708770350	-0.0002493720396243	-0.0000407733064002	-0.0001535477803177
Mg	4.8684294212696422	22.4706093071759341	-11.9279814651878002	0.0000975364370831	0.0001360986279188	0.0000860804324544
Mg	-2.8897804126565436	18.7904224344533510	-13.0293127503957553	-0.0000209049163609	-0.0000707212416453	-0.0000012452955381
Mg	0.0686612502409333	22.3157321637632258	-9.8243465843946769	0.0000200104288352	-0.0002420225545556	-0.0001845424679544
Mg	1.1031817363937961	19.4308312389144113	-9.7423326133541170	0.0000960231020905	-0.0000717888897301	0.0001567117256683
Mg	4.4144588029132219	24.3683562930813409	-9.4391198312296662	0.0000842436315842	0.0000765411394236	0.0000893640854773
Mg	3.0435046167543143	21.8523876638806200	-9.3055738500166623	0.0000663927409544	0.0000148714893721	0.0001669763710332
Mg	1.4971376493217534	24.5040416691337590	-8.2255837997289962	0.0000979461515743	0.0000131528474193	-0.0001441897838920
Mg	-0.7421669413493787	20.4767829262991903	-11.9975913509510512	0.0002193757535019	0.0000813524710676	0.0001289632878916
11
REF_energy=-244.2203680301813336 charge=2 Properties=species:S:1:pos:R:3:REF_forces:R:3
Mg	3.0407133104341519	23.1234814272855118	-8.3357955273708306	0.0000631699786631	0.0001308584175071	0.0000792156003220
Mg	-0.4828377304825288	21.4441131275481673	-13.1167673278516741	0.0000530299191038	0.0000864596260299	0.0000974341505854
Mg	-1.6882018135213213	22.7232834208408718	-10.5683082266578587	0.0001131724481282	0.0000436549248238	-0.0001406990656025
Mg	-0.7376865622151921	19.8973595414784263	-10.2774287681105356	0.0000518708958209	0.0000053210826735	-0.0000452712325022
Mg	4.7440664490052660	20.7257204096046266	-13.5331798826465572	0.0000235281347633	-0.0000293998156514	0.0000726867113010
Mg	0.1892830317032557	21.7665350291710027	-7.8150261010440101	-0.0001294503544585	-0.0001065335576635	0.0000330878167333
Mg	-2.6223189868991588	21.2273579302161082	-8.2813879788355749	0.0000830806079492	-0.0000352037320540	0.0001264710260354
Mg	4.3269845440692807	21.4831158039498824	-10.7645299955317313	0.0000057372698017	-0.0000468943508248	-0.0000791783595438
Mg	2.1359264213281293	19.7011649182916493	-12.3265867613479525	-0.0000388678988572	-0.0000106609809782	0.0000653715645884
Mg	1.3172465912045621	22.1621374357347420	-10.6611714837141989	-0.0001650105328498	-0.0000804106198626	-0.0002436951504470
Mg	2.4220076377474995	22.4426067653679198	-13.4993318048780253	-0.0000602604680648	0.0000428090060000	0.0000345769385299
11
REF_energy=-243.8979468151398748 charge=2 Properties=species:S:1:pos:R:3:REF_forces:R:3
Mg	4.8940136292306073	-0.9550418717447442	-1.9859714764293177	0.0000068161309314	0.0000241385715692	0.0001269096706205
Mg	2.3234095139410225	-1.8130914071027722	-3.8788938663096042	-0.0001036701269580	0.0000029055853300	-0.0000440373025905
Mg	6.4033522594301973	-0.0215427248746965	0.5117790602954233	-0.0000331149239428	-0.0001355908523914	0.0000247937179336
Mg	1.2328527380997270	-2.6921366260461919	-6.5781194834225207	-0.0000205981957408	-0.0001329776116832	0.0000509883986293
Mg	4.0086599729716781	0.5332862183349432	-4.4482436503959697	0.0000945142143817	0.0000169645025955	-0.0001167209073700
Mg	2.3329836833781603	-1.7930584766522581	-0.9525510514133931	0.0000562705685742	0.0002118052272920	-0.0001670389220188
Mg	4.6686895062674161	-2.4081205533741246	0.7525789353533494	0.0000029818144302	-0.0000575589058115	-0.0000332478966550
Mg	2.0899831444818040	0.9466276464104213	-2.2339263310805721	-0.0000019775637263	0.0000999540997570	0.0001237460788197
Mg	0.6813077886987893	-3.8996410320429606	0.1888918231293245	0.0000791129129423	-0.0000864531069620	0.0000214943038345
Mg	2.3617152859990376	3.1486694486041209	-0.1031548469572389	0.0000190564023965	-0.0001264169285338	0.0000590802531068
Mg	3.5184574453712334	0.4760324451539178	0.7455414510011443	-0.0000993912332884	0.0001832294188383	-0.0000459673943103
11
REF_energy=-242.3998695967342201 charge=2 Properties=species:S:1:pos:R:3:REF_forces:R:3
Mg	4.4101777155245703	14.6126302717095058	-4.0172657389707993	0.0000295149751641	0.0000557877820269	-0.0000248545446443
Mg	2.2982275970359187	13.1373110310453729	-5.4074999680173015	-0.0001552169867183	0.0000571987063058	0.0002064571673490
Mg	2.2166307873917779	12.6127945166098723	-8.2643566780317670	0.0000342877969829	0.0001304100856308	-0.0000737394084737
Mg	2.1281336306371972	12.0798759073323989	-11.1993638897857259	-0.0000859921909456	0.0000365355619930	-0.0000898560620577
Mg	6.6059425277312656	16.1479684472366429	-2.6009721362083784	-0.0000891896252283	-0.0000719362846092	-0.0000085765275541
Mg	8.8640626290033318	17.7275572771159560	-1.1747954228939370	0.0001037529135786	-0.0000712457703053	-0.0000418661014512
Mg	0.2739982615422945	12.2786103206138808	-3.4747170106075660	-0.0000590675798383	0.0000801275724842	0.0000113829737881
Mg	2.0331305450695152	11.5476109242901259	-14.1657294690277542	0.0000217361094596	-0.0000070289545080	-0.0000294546362045
Mg	-1.8396315956345459	11.3834643434859615	-1.4957522767479039	0.0000450156547510	0.0000083982925561	-0.0000783258154133
Mg	1.9312611811181302	11.0079147016663157	-17.2050485657717758	0.0001050421784741	-0.0001014826059987	0.0000683883951536
Mg	-4.0231302692375097	10.4595505668495310	0.5060562228933407	0.0000501167543202	-0.0001167643855755	0.0000604445595081
11
REF_energy=-243.5917878437848856 charge=2 Properties=species:S:1:pos:R:3:REF_forces:R:3
Mg	-26.9200390056594685	49.9740481281862969	25.9806074287185034	0.0000112289798676	0.0000109109004065	0.0000624031260948
Mg	-26.5704991579795298	47.0599349417020463	26.6737174601011127	0.0000077501460588	-0.0000571163510471	0.0000742433191806
Mg	-25.6234608154361965	42.7306604531435426	23.0389197604795619	0.0000195506267371	-0.0000490003802797	-0.0000734016665264
Mg	-27.9746862933331641	47.8413974449700419	24.1273812217993502	-0.0000089544769347	-0.0000029413024547	-0.0000296150188788
Mg	-24.1771791134545282	34.6517871160811808	19.7121264937182517	-0.0000259478432488	0.0000185138675609	-0.0000231787172218
Mg	-23.1934585974221612	29.1286026930710058	17.4024372261995417	0.0000231839203886	-0.0000293177230370	0.0001078274247677
Mg	-24.6598308536009405	37.3527675470102878	20.8314459517417951	-0.0000411639406966	0.0000026658232878	-0.0000618845484012
Mg	-25.0056821597645360	48.2622565554164140	24.3994992687972534	0.0000040426093097	0.0000052193842886	-0.0000130918291352
Mg	-23.6910759331266156	31.9238634140967967	18.5745577604718264	0.0000201984494825	-0.0000175479199999	-0.0000184762681044
Mg	-25.1414801835742168	40.0416981848384594	21.9386194003721755	-0.0000117482530973	0.0001123636258057	-0.0000282184045275
Mg	-26.1034484083212917	45.4101758250450018	24.1296561081681595	0.0000018597821331	0.0000062500754689	0.0000033925827522
11
REF_energy=-242.8782958379640604 charge=2 Properties=species:S:1:pos:R:3:REF_forces:R:3
Mg	12.2231910856336174	-3.7334439922556655	6.7639297824434621	0.0000202917860533	-0.0000609122809781	0.0000045727805200
Mg	7.7076967653235240	-2.6501120601113630	3.2794712180482946	0.0000301645731125	-0.0000242864229254	-0.0000985944421825
Mg	4.7600033420332100	-1.9290611127246344	3.6967514856042949	-0.0000288453605485	0.0000870064127731	-0.0000367910543176
Mg	2.1046177926941740	-1.2760078655702394	2.5873964026920273	0.0000413649385966	0.0000696854972489	-0.0000715536654851
Mg	14.9124932176733775	-4.3771017101703684	7.8513548669042406	0.0000264578735910	0.0000076099169797	-0.0000146737331789
Mg	17.6348787386288883	-5.0270156237610486	8.9448872827564330	0.0000029329401738	0.0000093971475818	0.0000764624083455
Mg	20.4286965578139856	-5.6925786720440614	10.0623314848437193	-0.0000246739511580	-0.0000289297622926	0.0000776490562583
Mg	-0.5934600764928435	-0.6080338025227329	1.4487917962321069	0.0000962808428781	-0.0000510424623082	0.0000603082510683
Mg	9.5701211386286911	-3.0965850300821312	5.6819606413441788	0.0000050616671055	0.0000419071985999	-0.0000969579570835
Mg	-3.3576946620127188	0.0799510160806316	0.2728994151150810	-0.0001407080665597	-0.0000425109970864	0.0001204978443599
Mg	6.6121438503607308	-2.3781677084658006	6.0939508001089369	-0.0000283272432445	-0.0000079242475927	-0.0000209194883044
11
REF_energy=-243.9862839334748230 charge=2 Properties=species:S:1:pos:R:3:REF_forces:R:3
Mg	-27.6513234543272688	39.2005297897618945	21.0176448215592515	-0.0000023070715099	-0.0001912528305233	-0.0000176214251810
Mg	-25.9916939523882391	36.8983947232999938	22.5200582293839986	-0.0003468897269743	-0.0001145974509935	0.0001064243269318
Mg	-21.7794263535282830	39.1202106519368940	22.6857608659790380	-0.0000678805893551	-0.0000447475286760	0.0000091412306039
Mg	-23.0987368326374423	36.5250866822949334	22.0706465363057056	0.0000832190897337	-0.0001373503158807	-0.0000792090870157
Mg	-19.1865711621479136	40.4827816890883128	22.7678957228525292	-0.0000156393293169	0.0000649871707307	-0.0000832564698346
Mg	-27.6696592122082379	38.6766600940276604	24.1626892616308240	0.0002090104268807	0.0000593081322168	0.0001761295592688
Mg	-26.1155815104897044	38.7543576315292881	26.6565082961165380	0.0000218670892379	-0.0000456800436055	0.0000191973239361
Mg	-26.3913892603626650	36.0704436888886022	25.4291558693070918	-0.0001843346461946	0.0001254366963078	-0.0001240076708998
Mg	-24.1290208693276043	38.1785270058902100	24.4511456652336641	0.0001005514776398	0.0000309906028946	-0.0000605968878808
Mg	-16.4544585866935513	41.8070871679195122	22.7450951969248507	0.0001149308994029	0.0000925363782020	0.0001216526893483
Mg	-24.4932969539140117	39.1377226088485344	21.3866031417963356	0.0000874723804558	0.0001603691893270	-0.0000678535892770
11
REF_energy=-259.3325220242431897 charge=-1 Properties=species:S:1:pos:R:3:REF_forces:R:3
Mg	-0.9282529461997613	20.0802320823700846	-13.2641997457043761	-0.0000226924196110	-0.0000200137105048	0.0000553803101181
Mg	3.9418050479087636	18.4472055484642752	-12.8679146619623275	-0.0000628223883787	-0.0000678569024530	-0.0000477290360324
Mg	1.4772265072835826	19.7259275010714710	-11.4982356107429613	0.0000183607124740	0.0000068421085161	0.0000069937968249
Mg	-0.7515195410676667	21.5271317332589014	-10.7058404019136972	0.0000014685373800	-0.0000184966891620	-0.0000093891466900
Mg	1.7806952117271240	20.1876024664947487	-14.5814925656721694	-0.0000310200411708	0.0000341867361664	0.0000096343655133
Mg	-2.0330022929065623	22.9778791766158363	-12.9826536401860082	-0.0000165942264352	-0.0001002511589954	0.0000178008427603
Mg	-0.1930971984537902	24.4261242399924718	-11.1520934426448832	-0.0000302242677760	0.0000151247267823	-0.0000806410921618
Mg	2.9608914834301259	22.7714498012575710	-15.4161650338858340	0.0000941190192420	0.0000502244606663	0.0000389905022393
Mg	3.6105950404812193	21.6681208501194718	-12.7428742370874843	0.0000289871955877	-0.0000217758458778	0.0000145460920749
Mg	0.8900488640302768	22.7113655374142205	-13.3014800827644049	-0.0000129840707587	0.0000836004437859	0.0000312903091560
Mg	2.0203914096878215	22.4267456970726577	-10.3003989443319153	0.0000334019494466	0.0000384158310759	-0.0000368769438027
11
REF_energy=-244.2549518488122544 charge=2 Properties=species:S:1:pos:R:3:REF_forces:R:3
Mg	-1.7753900989123690	24.5068974482620838	-14.0352829809117523	-0.0000459160289966	-0.0000145570885141	0.0000111448870259
Mg	2.7641853092942514	21.4463594891995051	-12.5199749160817451	-0.0000162313967677	0.0000342219890627	-0.0000130001836947
Mg	1.1834049867454641	24.4421640428342641	-13.7267025425830731	0.0000783987979305	-0.0000260896190903	0.0000400339399547
Mg	1.8929166575979810	24.0025087808107429	-10.9037193882473780	0.0000461238031194	0.0000209468246594	-0.0000084058314644
Mg	1.5020834068229099	21.2780019018238988	-9.5903813248916023	0.0000505180632582	-0.0000379149948932	0.0000293224035532
Mg	0.7853302966333692	19.2935437652967927	-11.7920795875727915	-0.0000155175007336	0.0000126510491706	-0.0000108224264785
Mg	2.9013880182945679	21.9525890778695185	-6.9755604907185624	-0.0000155105298252	-0.0000055381546821	-0.0000427216998424
Mg	4.3798105231585396	20.5001983482203194	-9.7941503339175036	-0.0000373379544179	0.0000094124448672	0.0000236223088771
Mg	-0.7760370041666222	25.1968015175787201	-11.3532544200095167	-0.0000075401472333	0.0000158775415395	-0.0000040335745637
Mg	-0.2480885904307246	22.1987808038894698	-12.1398645246672299	-0.0000262556780578	-0.0000309648852782	-0.0000128306207260
Mg	4.2495939156042288	23.3627342387691925	-9.2708165051181251	-0.0000107314282760	0.0000219548931585	-0.0000123092026411
11
REF_energy=-243.4582134294091418 charge=2 Properties=species:S:1:pos:R:3:REF_forces:R:3
Mg	0.8140369583150073	24.2764230499216147	-7.9672749835841694	-0.0000763214008162	0.0000020718200845	-0.0000733660984240
Mg	-3.2735937946716582	21.1281354789351958	-5.0306615317015249	0.0000771585860879	-0.0000905705353317	0.0000407413027627
Mg	-0.7478726090989953	22.9733222843811582	-10.0767528634939350	-0.0000156518704596	0.0000881089619667	0.0000272393318599
Mg	-3.6118409711314281	27.5941746663762295	-8.7794464739025475	-0.0000872907290081	0.0000426785652525	0.0000147908916222
Mg	-1.9797376149630062	25.1606881354436780	-8.4803591515937331	0.0001005020383643	-0.0001850646519926	-0.0000042579355631
Mg	-5.2471883826906316	30.1581107341541106	-9.1613523716366636	0.0000393231181261	0.0000296358853941	0.0000586579703474
Mg	1.1061377041862865	21.3315827343766529	-8.3998976603602724	0.0000237537250643	-0.0000585281628747	-0.0000645493708742
Mg	5.2393221469740103	17.1407475337401216	-8.8796888845992470	0.0000811226388331	-0.0000711344741587	0.0000067492235401
Mg	3.1230691136699003	19.2331130615126789	-8.6004640144009663	-0.0001087964291961	0.0001468841670980	0.0000185471665694
Mg	-1.4703552899724801	22.4566651072414523	-7.1871064586611455	0.0000160790604332	0.0000991297137446	-0.0001143002867892
Mg	7.4240847442517133	15.0127386462010737	-9.1878292572363183	-0.0000498787374289	-0.0000032112891826	0.0000897478049488
11