11
REF_energy=-258.0894416747067339 charge=0 Properties=species:S:1:pos:R:3:REF_forces:R:3
Mg	-2.5751825508567756	22.4764296829401218	-13.0831207302916379	0.0000012688960571	-0.0000163041977747	-0.0000969434222606
Mg	-0.3598996066089120	20.3243751732360955	-11.7080694088065957	-0.0000029400779515	-0.0000129662898669	0.0000020186645596
Mg	4.2839599196899822	21.1512981874635990	-9.8226544927412345	-0.0000355064298978	0.0000116131496728	-0.0000269953898654
Mg	-0.8262046786777405	21.0234410722455998	-8.8702897173510671	-0.0000132189433363	-0.0000149171833543	0.0000400067058919
Mg	0.6904370776964692	22.3558810404647232	-13.5251347265846409	-0.0000248606288904	0.0000082064495656	0.0000562885630049
Mg	-0.3850578455177056	23.1710814385349586	-10.8782640255236682	0.0000637544643404	0.0000588760646019	0.0000147264959813
Mg	1.4326042491488269	25.1826753390344145	-9.8552861457478471	-0.0000321846149498	-0.0000149183577065	0.0000310279775234
Mg	1.7571187795633407	22.4857704484758933	-8.7360817522888041	0.0000480620470014	0.0000230245567046	-0.0000005588375724
Mg	2.6232711938634323	20.4091963072238727	-12.3261762020716859	-0.0000037804152004	0.0000777494293457	-0.0000047676813296
Mg	2.7450793149678021	23.1984889131857308	-11.5301674319354142	-0.0000088070243084	-0.0000943177131119	-0.0000439851720711
Mg	1.7025162125366384	19.6562137669237451	-9.5820137565808263	0.0000082127271358	-0.0000260459080762	0.0000291820961379
11
REF_energy=-244.1865242916038596 charge=2 Properties=species:S:1:pos:R:3:REF_forces:R:3
Mg	0.6433000708700104	22.5120319270316394	-10.9635951568557903	-0.0000650883567917	0.0002429290098273	-0.0000946422296397
Mg	0.8951457910983851	22.3220627772909950	-7.8292311194194379	-0.0000031551628090	0.0001154679056054	0.0000156425433742
Mg	2.9494747349155621	24.1368529756168968	-6.7918312004253591	-0.0002260176489586	-0.0001627704375142	0.0001033544743765
Mg	1.1608534841452240	25.0207622512926058	-9.1772694679638072	-0.0001863791504201	0.0000890523732868	-0.0000684946904940
Mg	2.1020210223607805	20.0963377590259853	-9.5846860698307399	0.0002703055603939	-0.0000655232387159	-0.0000967280553722
Mg	-0.5720240513996475	25.1430701586334457	-11.8575018197691762	0.0001160948582982	-0.0000923901376598	0.0001384858845762
Mg	-0.3311621359922343	19.6842254227927604	-11.2394652155392336	-0.0001134119188513	-0.0000172176795518	0.0000756937976609
Mg	0.1371247587944862	16.2492581632782098	-15.9348825187447272	-0.0002113185845328	-0.0000562759100478	0.0001232203814599
Mg	3.3356543091231385	22.8973534358174398	-9.4537615135725286	0.0001269345758485	0.0000499794157060	0.0000577661310969
Mg	0.4810012809617822	18.3463223077961395	-13.7881753269825857	0.0000302850880968	-0.0000707443364963	-0.0001414577903651
Mg	2.2299175922163554	20.4912843634161383	-12.5314813877156030	0.0002617507397261	-0.0000325069644397	-0.0001128404466738
11
REF_energy=-243.6875981028714762 charge=2 Properties=species:S:1:pos:R:3:REF_forces:R:3
Mg	2.8617433080727475	24.4306511802465565	-21.1801950962664733	-0.0000894364789772	0.0000951749406155	-0.0000326019181937
Mg	1.0153478958264255	22.3138953330757701	-4.7871074920165588	-0.0000251863686115	-0.0000117357687929	0.0000679941894297
Mg	1.1468318432487157	21.0203774820403808	-13.4133024473078262	0.0000568136471010	0.0000686602209779	0.0000902198960899
Mg	3.2714298115297891	22.9389616022628964	-12.6664771355089076	-0.0001060283923325	-0.0000222754788272	-0.0001336750991818
Mg	2.4120277380250119	23.7760450125350076	-18.2288113262821767	-0.0000019595251628	-0.0000415827711784	0.0001314997547076
Mg	0.8571327559924082	21.4210457379567636	-7.7501027802106925	0.0000324418284985	-0.0000776663526923	-0.0000328603324101
Mg	-0.0351562366034342	19.3670916550076981	-5.6085558183433291	-0.0000076245185465	0.0000346647441989	-0.0001656352010852
Mg	0.1321481784188375	20.2583026973931624	-2.6527040135326372	-0.0000388175172979	0.0001485740565296	0.0000287473443619
Mg	1.2671422451790597	22.0560177766777699	-10.5544038856696858	-0.0000121873269685	-0.0001170740617443	0.0000896406198732
Mg	1.9840331795312327	23.1423413048414268	-15.3874668806612949	0.0000496817996532	0.0000462322154610	0.0000153895183570
Mg	0.4648482124061885	23.8488375649513422	-12.8782945648253406	0.0001423028526442	-0.0001229717445478	-0.0000587187719486
11
REF_energy=-244.3062053532499078 charge=2 Properties=species:S:1:pos:R:3:REF_forces:R:3
Mg	-14.3235339163747497	7.8278499858613131	20.6460222409734442	0.0000831192855332	0.0003623023291580	0.0001076305959349
Mg	-13.6675386555976139	11.1178476553017411	16.0684105863888398	0.0001137570242076	0.0001228589419435	0.0000475584308969
Mg	-15.4864944413269079	9.7855492105361126	18.0530339319458619	-0.0000609632490749	-0.0001252952224808	-0.0002349021538524
Mg	-13.3148119635860027	8.5041175869908194	23.6381789917816505	0.0001230310733607	0.0000319896625445	-0.0000266271302321
Mg	-16.5689772439909042	10.9906514654508598	15.3737824855268368	0.0000202944857634	-0.0000481768850481	-0.0000935177096573
Mg	-13.5465672072578514	11.8714811822056472	19.0044210981863557	-0.0000801448071854	-0.0003041473988400	0.0002914690114445
Mg	-13.3163128691650599	5.7518372096779133	22.7078163212894673	0.0000137531286207	0.0001047116378814	-0.0000320246574543
Mg	-15.9711854772190947	12.9201992029522685	17.4639735304864097	-0.0001713953177594	0.0000328459502059	0.0000112613877920
Mg	-12.6711412640580594	10.2776540638259082	21.2250567937595953	0.0001452868148875	0.0000213688673531	-0.0000155208717522
Mg	-12.3080312573169230	9.1225697495898306	18.4104057482430434	0.0000311013969595	-0.0000058811701842	-0.0000175847700832
Mg	-11.3973064106725239	7.5126469503826270	21.2278638636571344	-0.0002178398353128	-0.0001925767125332	-0.0000377421330368
11
REF_energy=-243.5868989954602171 charge=2 Properties=species:S:1:pos:R:3:REF_forces:R:3
Mg	0.1949683343705041	21.2943119430833114	-11.3876063508859424	0.0000167739426663	0.0000012049544819	0.0000410333455589
Mg	-0.2312903609844249	22.6180582260584941	-5.1655177440670679	0.0000086008144796	-0.0000299523526405	0.0000470492315058
Mg	-3.2908062682465711	18.0504360968110227	-5.1748351742481002	-0.0000087055166359	-0.0000124438092073	0.0000202252061931
Mg	-1.6214428185901872	20.1731818166975962	-6.3616157016717052	0.0000629783514338	0.0000391989512531	0.0000204884196972
Mg	0.1420707278366735	24.2186367923654373	-10.0957347199028522	-0.0000371691860813	-0.0000471736390082	0.0000050007220129
Mg	2.7256365453385745	25.8141949995548536	-8.9363715374833887	-0.0000460301919410	0.0000316481304201	-0.0000040896020358
Mg	2.4774447367295687	22.6417615545737547	-9.5988118375845097	-0.0000246851168447	0.0000298693163901	-0.0000246358736522
Mg	1.2080212444067469	24.1163357769196303	-7.1925013163815512	0.0000513066521073	0.0000217083833908	-0.0000073863763206
Mg	-0.1763088558955077	21.6599073518023530	-8.4792934102525503	0.0000579567345041	-0.0000010989910238	-0.0000091347943807
Mg	0.2264584011819618	20.4198606391751518	-14.3059456865873429	-0.0000358805955318	-0.0000517769146332	-0.0000006784318611
Mg	-4.9964622718580873	15.9244133529933638	-3.8120390790396792	-0.0000451458881563	0.0000188159705771	-0.0000878718467175
11
REF_energy=-243.5017457152678446 charge=2 Properties=species:S:1:pos:R:3:REF_forces:R:3
Mg	-26.2791262794290823	39.2295312488707495	21.0204765011408519	-0.0000262709481615	0.0000765831950639	-0.0000000021277990
Mg	-25.2419454343943137	42.0438360034454632	21.5129762530610655	-0.0000868375135364	0.0000880392461223	0.0000661048919615
Mg	-22.5950575042359532	30.4805364977307995	31.1634649338629472	0.0001411278427149	-0.0000296917655482	0.0002009947188179
Mg	-21.9492478925646708	40.0615067519414580	25.0223252513637995	-0.0000019009472463	-0.0000792024118299	-0.0001010070380914
Mg	-23.0104775459210309	32.9210503286235578	29.3689416587361123	-0.0000250784996202	0.0000657015608021	0.0000438023094677
Mg	-23.7139826312268802	42.2074726989574813	24.0334624022823533	0.0000788653680876	-0.0000200273664133	-0.0000940028602914
Mg	-24.6880598179155371	39.3099373217536936	23.6771609272009336	0.0000428449233337	-0.0001469067355021	0.0000374255986970
Mg	-23.6030237980217557	37.8460515511461253	26.1703085429994573	0.0000166076185521	-0.0000556971063323	-0.0001770401723231
Mg	-23.3749872957007803	35.3474360551997790	27.6697351536253571	-0.0000655575978359	-0.0000973593432901	0.0000176183179404
Mg	-24.4140697271864191	40.7111261944028513	26.4763791806382045	-0.0001593109528843	-0.0000028556503317	0.0000609987384503
Mg	-27.9385613528908259	37.8960165088707441	18.8211482350533075	0.0000855107065963	0.0002014163772593	-0.0000548923768299
11
REF_energy=-243.3092819764172816 charge=2 Properties=species:S:1:pos:R:3:REF_forces:R:3
Mg	-10.0397420115010334	13.9186475929706592	16.0425087622085094	-0.0001060463482159	0.0000171655353486	-0.0001594653910077
Mg	-16.3066143894577387	9.4588362003852566	19.8791401847659088	0.0000070775775483	0.0000441986076663	0.0000007876338265
Mg	-13.9015949247264885	9.0487543253384111	22.1152122090828058	-0.0000744502607562	0.0000466910583035	0.0001268304566263
Mg	-13.6343072546125939	10.8978125416502358	19.7743756527946708	0.0000423096295908	0.0001049863347564	-0.0000728967938751
Mg	-11.6520362191533469	7.6116917901916787	23.6417352864827848	-0.0000770813355681	-0.0001403950423583	0.0000255378243870
Mg	-16.7687055383073194	9.1168157632530686	22.8277796185672841	0.0000955129648293	0.0000397319007436	0.0001171163750245
Mg	-19.1107589495580150	8.2035604403077738	21.3298878045892160	-0.0000462790346555	0.0000021351277037	0.0000079051001666
Mg	-15.4853800964486066	11.6052118889577311	21.9782981835199855	0.0001333106410654	-0.0000450061181378	0.0000163238786335
Mg	-18.7332357958427558	8.2543498638550847	18.3339811703559228	0.0000099774737287	-0.0000202434987298	-0.0001446174598313
Mg	-20.2255291714886170	7.4976233683994797	15.7766271927742565	0.0001489300555009	0.0000278545849913	-0.0000244521962641
Mg	-11.9136553330661084	12.3215197201389852	17.8567289070258326	-0.0001332613630678	-0.0000771184902874	0.0001069305723137
11
REF_energy=-242.7331658710761246 charge=2 Properties=species:S:1:pos:R:3:REF_forces:R:3
Mg	-10.1969942004592511	12.0138543938963540	9.9241175000451634	-0.0000649173778200	0.0001580558747381	0.0001375224029753
Mg	-14.4264599375483495	12.3062614601189608	13.6401543235899290	-0.0002109090702633	-0.0000554147396016	0.0000813741353898
Mg	-18.9339323922767804	11.0079677074527886	20.4029270380096008	0.0000888093877243	0.0000330879283539	-0.0000866730259516
Mg	-12.8177807045469994	12.7724503945543439	11.2341741422345152	-0.0000587337519412	-0.0000508643636874	-0.0000625150993773
Mg	-20.5423594103837956	10.5474530285604278	22.8307503846575131	-0.0000984026002595	-0.0000416157254129	0.0000314527899522
Mg	-22.9554714797845172	9.0324915924649289	23.8501659813558646	0.0000189301450427	0.0000747363204559	-0.0001235315967504
Mg	-17.3308779123244250	11.4688503403467319	17.9902866089113296	0.0002018504457345	0.0000583107030891	0.0000392947201586
Mg	-16.4905131720065228	10.6425681950301865	15.1611567556441411	0.0000628957868552	0.0002898773606334	0.0000993388265478
Mg	-12.8211651362374752	14.2971212563301577	8.6194055403372172	0.0000388187961293	-0.0001680894057343	-0.0001418437266839
Mg	-20.7319847456862405	11.3208078225374571	25.7505347211720732	0.0000112738702079	-0.0000954757168442	-0.0000095011463405
Mg	-15.2624715619621210	13.1351744361098444	16.4608582181200376	0.0000103843685900	-0.0002026082359901	0.0000350817200801
11
REF_energy=-244.1910326426029201 charge=2 Properties=species:S:1:pos:R:3:REF_forces:R:3
Mg	0.0521517577292569	28.1275437924232037	-6.2556829825738687	0.0001005899591819	0.0000516519658410	0.0000030875178301
Mg	0.4433392156745804	20.9643741376730972	-9.3542673594573049	-0.0000795915384376	-0.0000208370874833	-0.0000340321906783
Mg	0.0830036576753135	23.9931602110901352	-10.2322097063874597	-0.0000412714708830	-0.0000590720963908	-0.0000608004166941
Mg	-2.5867007748456352	25.5546884074730194	-9.3605045496454053	0.0000034882772674	-0.0000993990526666	0.0000515819862195
Mg	-0.0342473085096009	21.5260084210460541	-12.2450771122377571	0.0000876328185511	0.0000850871512451	-0.0000111818205368
Mg	-0.1467669806233989	25.5182260855894505	-7.6250707418583188	-0.0000584882747131	0.0000570196077446	-0.0000644961901601
Mg	2.6162715564921126	22.3466518003799237	-10.8977872202525798	0.0000409831832208	0.0000115120205260	-0.0000036126842364
Mg	-1.6993814828759803	23.0322477591595494	-7.9955145069723681	-0.0000231818743418	0.0000855682677306	0.0000050587211068
Mg	1.8492856986118111	23.2329023746734968	-7.8866319373333598	-0.0000938785697171	-0.0000569378423255	0.0000739610873098
Mg	2.6282832317880498	19.3620802170089910	-10.9871448751579965	0.0000072374548835	0.0000249451216690	-0.0000404666646193
Mg	-2.5820525790059343	22.8439299179562916	-10.9326940894686935	0.0000564800349879	-0.0000795380558901	0.0000809006544588
11
REF_energy=-244.1689945268199722 charge=2 Properties=species:S:1:pos:R:3:REF_forces:R:3
Mg	2.0795631660408382	19.0147132382103834	-9.8058178528013524	-0.0000760673789423	-0.0000446290056031	0.0001374926424220
Mg	2.9156714216228656	17.8021019778287766	-7.2332610759316145	0.0002503128246150	0.0002076175013720	-0.0000211607038764
Mg	1.9090675648990767	29.3565681944691015	-10.9043926834771536	0.0001858106024526	0.0000784637690826	-0.0000170688061306
Mg	3.5192238199344663	21.5266089472982394	-10.5109864048249690	-0.0000747021274900	0.0000179220486942	0.0000565343357675
Mg	0.0336766362754784	18.6024815054490844	-7.6453967553872140	-0.0000292773039552	-0.0003573139494982	-0.0000678063002873
Mg	1.3829222637457812	18.9004795021907945	-4.9772518843711513	0.0002031447262374	-0.0001391661153729	-0.0000370604149484
Mg	2.0089819579571189	26.3787202795073945	-10.4389805982970341	0.0000630395009059	-0.0001150711417951	-0.0001112080530126
Mg	2.1429774371441002	20.8505678540293289	-7.4923870210259800	-0.0004126599368809	0.0002400135077809	0.0000674695575483
Mg	0.5757512457555235	21.5859471060244417	-10.2688911651284087	-0.0001476644556313	0.0000773267087119	-0.0001554941282206
Mg	2.2220986457559504	23.7851361834359274	-9.0044115160824525	0.0000223624105721	0.0000388256771908	-0.0000240171330622
Mg	2.0441897159437539	23.7130015540148200	-11.9887834553167814	0.0000157011381167	-0.0000039890005630	0.0001723190038003
11
REF_energy=-243.6323104066771634 charge=2 Properties=species:S:1:pos:R:3:REF_forces:R:3
Mg	-2.7034789809431152	11.3446110217024003	-9.5293616797934977	0.0000186870622881	0.0001967178855864	0.0000836382922225
Mg	-0.6812155938390567	9.3135596483821370	-10.6228988147645964	0.0001594514978959	-0.0002476284062010	0.0001085156491264
Mg	-0.9264646997767295	12.0743777013176050	-11.9369707782698296	0.0000038627262793	0.0001992962290714	0.0001075087706760
Mg	0.5656266841815623	6.6886934010839383	-10.4942326481805139	-0.0001203864308404	0.0002640696316529	0.0000127228214201
Mg	0.3079736530780218	3.7384722655911893	-11.2751583091979626	-0.0000362658015260	-0.0000813003939076	-0.0000469861600229
Mg	2.6933337137545341	2.2183828355569664	-10.2678673728025736	-0.0000116280150607	-0.0001026761597628	-0.0000681051250777
Mg	-4.1857344802425560	16.7769730686389522	-10.9434377105556262	-0.0001924263458267	0.0004431311145241	-0.0000712048492850
Mg	3.0410718988299728	5.0410522192530491	-11.2297729728414950	0.0000667145996474	-0.0000383787815027	-0.0000815401928496
Mg	1.5867598928168190	4.4804936331249801	-8.6330076743411368	-0.0000061207087622	-0.0000823162997952	0.0000193426314163
Mg	-5.4747068528950047	19.5490552109115967	-11.0488941817372837	-0.0000511097800631	-0.0001690149339821	-0.0001322899797428
Mg	-2.9328544782948258	14.0922716775799994	-10.8362962458972376	0.0001692211959683	-0.0003818998856835	0.0000683981421167
11
REF_energy=-259.7736590064764641 charge=-1 Properties=species:S:1:pos:R:3:REF_forces:R:3
Mg	1.9698187562183691	19.6814409924582705	-13.3686649280279557	0.0000306000374234	0.0000204359850576	-0.0000040518863818
Mg	-1.7143426857561483	21.7375676626960086	-10.4882158956940916	0.0000076566883595	0.0000821516200843	-0.0000682803394812
Mg	-0.8278158792070509	20.9421704585292545	-13.2049805409198839	-0.0000114770492962	0.0000430326404926	-0.0000151231857641
Mg	-0.6213897967019447	23.7997553454283164	-12.2789540754098461	-0.0000125678021644	-0.0000369550015392	0.0000174751793745
Mg	2.2323716141789691	24.4472304872802297	-11.6660514168797285	0.0000015017310784	-0.0000030733387975	0.0000147851993999
Mg	3.1299661400420606	21.5734267150257359	-11.2880346772978672	0.0000051118768076	-0.0000159381569862	0.0000087224073218
Mg	-1.5803861609642356	23.1849595976597556	-7.6152596282551794	-0.0000185399163533	-0.0000445286553213	-0.0000157278410495
Mg	0.9188798950883140	22.8315182983602547	-9.6709234790291188	-0.0000221598952636	-0.0000313142687388	-0.0000297962148878
Mg	-0.1957572969257168	20.5567859633396495	-7.9794881866006122	0.0000718222688570	0.0000111728117992	0.0000794063615896
Mg	0.7192881159482811	19.9884589940382078	-10.7689540396293193	-0.0000231944728301	0.0000274563670884	0.0000036629954359
Mg	1.6032990628449033	22.5414709452692499	-13.7892655939788487	-0.0000287534666182	-0.0000524400031391	0.0000089273244427
11
REF_energy=-243.8381055213331194 charge=2 Properties=species:S:1:pos:R:3:REF_forces:R:3
Mg	-1.4751894890186794	23.2902015869287098	-13.8515552098586436	-0.0000186943172924	-0.0000038196961021	0.0000628626380673
Mg	-0.1828713444041432	20.9883242227495330	-9.4904456961107293	-0.0000829855518563	-0.0000294415850553	-0.0000308703818615
Mg	-0.0917019877773929	18.2225533030192040	-10.5642130082538479	-0.0001062110646569	-0.0002806738736379	0.0000514021805655
Mg	4.7176146169846680	30.6362071495824608	-9.8311358794615593	0.0001730429120303	0.0000173484625827	0.0000251610324231
Mg	-1.0460321410301772	20.5833348948573267	-12.4258078072058229	-0.0001054364233342	0.0000098026467887	-0.0001798407479326
Mg	1.8490594480249292	20.3103331983469175	-11.3920960369294519	0.0000725105859796	-0.0000054470307095	0.0000091647318356
Mg	-1.0154004171066322	15.3665575988936229	-10.5330489389690864	0.0001556461137289	0.0000706818568695	0.0001473988943204
Mg	2.3531650503018411	25.1643909517246165	-10.4255128221665281	-0.0002177911989983	-0.0000397969026838	-0.0000157414641575
Mg	2.5115157100547325	22.3957504259923752	-9.2702672644248896	0.0001177897848046	0.0000670052833548	-0.0000236975802170
Mg	0.5573779164116199	23.1323640632455998	-11.6213083990756481	0.0000441988766378	0.0002080193823134	-0.0001624979064534
Mg	3.4948960264510509	27.8641990373628801	-10.1615510069293933	-0.0000320697170432	-0.0000136785437207	0.0001166586034102
11
REF_energy=-243.3699702224356258 charge=2 Properties=species:S:1:pos:R:3:REF_forces:R:3
Mg	6.0963044187638200	24.2151087414750634	-9.1600362544382055	-0.0000248821798761	0.0001006653728605	-0.0000278655465312
Mg	3.2402165303300068	23.7610182066818645	-8.3379033769547828	0.0001828961599411	-0.0000170994078419	0.0000663535954331
Mg	1.2961113763612195	22.5803801032535425	-5.9352392174235495	0.0000565777428100	0.0000131655805557	0.0000421228590860
Mg	1.1802625344015159	21.8589888387167264	-8.9393359404836286	-0.0000859803536948	-0.0001891643321173	-0.0000285731561379
Mg	2.6339502503987973	25.3456838635014741	-5.9501863350577882	-0.0001018149436287	0.0000231527043283	-0.0000265351026068
Mg	-4.4115598624894199	16.3642343187546722	-13.2034131752949584	-0.0000469793907113	0.0001058960285095	0.0000162567806984
Mg	-0.3755696061601503	22.3385832912141318	-3.2855980648166940	0.0000267027631332	-0.0000558299781071	0.0000084733557452
Mg	0.4069990633672984	24.7411019594097432	-7.7874669640330758	0.0000066445093090	-0.0000231510160071	-0.0000726611764283
Mg	-2.6278889103680796	18.2645836288887544	-11.6168708325289050	-0.0000654606865910	-0.0000043776094814	-0.0000758527368303
Mg	-0.8194148836832867	20.1115997460569602	-10.1362768882381911	0.0001311801235744	-0.0000406225192532	0.0001109133714434
Mg	0.1013575305524137	25.1567888364467152	-4.3816896901752012	-0.0000788837442656	0.0000873651765539	-0.0000126322438716
11
REF_energy=-243.5797741307498541 charge=2 Properties=species:S:1:pos:R:3:REF_forces:R:3
Mg	-17.9620686128654299	15.3339991436037586	15.1220872980575685	0.0001698328458973	-0.0000049164856954	-0.0000453154092760
Mg	-19.9509408465430269	17.5592310084199887	14.5760826858340931	-0.0000729555008600	0.0000335865938300	-0.0000153085697789
Mg	-16.3577234912513738	9.6185373482746890	17.1950548493996429	-0.0001264647859744	-0.0000287259206319	0.0000540406556295
Mg	-17.0081907063741085	12.5846692447011286	16.0928638260430645	0.0000601374887934	-0.0000728160981669	-0.0000667438502311
Mg	-19.6045157507451009	5.3268147092712264	19.5491419462534779	-0.0000493633190093	-0.0001291902026398	0.0000908083274785
Mg	-13.8857033461584134	11.9694288164936591	15.7655493453724169	-0.0000014645925332	-0.0000601284759233	0.0000259145640961
Mg	-17.2430646442412119	6.8753833157821855	18.4893788035102986	0.0001264844343399	0.0001226033849320	-0.0001107402097463
Mg	-14.5958434015774117	8.0224064297974547	19.1619654290268713	-0.0000277239406299	-0.0000151847907516	-0.0000318163316328
Mg	-14.9863799065867216	14.6733611506169854	14.8224821921576169	-0.0000649678779474	0.0001179221943885	0.0000873653750896
Mg	-13.3832293030343141	9.3555213425879185	16.7693468838145208	0.0000875673800619	0.0000703136968374	-0.0000934600234337
Mg	-15.0806514976457091	6.9057607161681132	16.4639084069492014	-0.0001010821321382	-0.0000334638961789	0.0001052554718051
11
REF_energy=-243.8332120902662439 charge=2 Properties=species:S:1:pos:R:3:REF_forces:R:3
Mg	-10.1705347703623037	13.5335971910508004	7.5445837422594293	-0.0000313340623152	-0.0000302938117678	-0.0000256024992949
Mg	-15.0014194799612941	15.1673846208392735	6.8397237662139236	0.0000171551537672	-0.0000206921805898	0.0000129671138394
Mg	-14.8044324300825814	14.0962801119705503	9.8140285133395473	-0.0000629664144345	0.0000124525759165	0.0000410015501615
Mg	-13.6152396790119656	13.5175637552681032	12.6052917645101754	-0.0000087600786106	0.0001089647424248	-0.0000566251602828
Mg	-12.4766901523581133	15.2075734270642435	8.2748474936962708	0.0000529137231759	0.0000089412991744	-0.0000577513286286
Mg	-10.7933193476369791	10.8931583384979671	8.6441319449560705	-0.0000685723745755	-0.0000905515530246	0.0000253400049121
Mg	-18.4003706664821145	10.5154527998814622	7.3637134543566711	0.0001163363230488	-0.0001481836356012	-0.0000197372715264
Mg	-16.7435932339776272	17.0916932813413283	5.2661441304276737	0.0000033904797943	0.0001062009250856	0.0000594762360922
Mg	-16.2864647328430543	12.6365576207572801	7.6674160203563115	0.0000501431642553	0.0000215438344890	0.0000492677507585
Mg	-13.1927621035727007	12.5730086390246747	7.3925404964960943	-0.0000334449763992	0.0000775141874150	-0.0000487863204884
Mg	-11.5835471813859456	13.1749578801568994	10.3515754876316031	-0.0000348609377065	-0.0000458963835219	0.0000204499244574
11
REF_energy=-259.0412758881158197 charge=-1 Properties=species:S:1:pos:R:3:REF_forces:R:3
Mg	4.6526798219162657	11.9719264788290989	-11.8707903974629367	-0.0000172631045285	0.0000384062038086	-0.0000159175143143
Mg	3.1802982381985911	7.3421479883715994	-10.1242626658046042	-0.0000121644949108	-0.0000318241450726	-0.0000332689180243
Mg	4.1598760694658976	9.1700025143024302	-12.4805460252424965	0.0000031410057949	-0.0001137540615884	-0.0000059275415000
Mg	11.4776049892783210	7.7789710968174726	-8.3960525475568719	0.0000396267648240	-0.0000765190028523	-0.0001203932224376
Mg	4.0077115560042227	6.2726792815672452	-12.7006339644796906	0.0000486216066777	0.0000495000821206	-0.0000243069174213
Mg	3.5301358803107976	10.4276311082531308	-9.6750788082058907	-0.0000339483983578	0.0000617349330031	-0.0000208922080531
Mg	2.8430648942802343	8.5966463011522229	-7.5207727933266888	-0.0000313009781562	-0.0000260767323641	-0.0000361550312445
Mg	5.6831152371485487	8.3962288139019545	-8.3657020681157839	0.0000341910924510	0.0000415819096236	0.0000455878520766
Mg	8.5276470571790721	8.2124371676004841	-9.3182337663933659	0.0000038681130778	0.0000615075066493	0.0000998826529173
Mg	6.2873134088707552	7.1958010351806720	-11.0384722950166889	-0.0000362009368650	0.0000092314974035	0.0000691657718532
Mg	6.6184614380337976	10.1383920908188738	-10.6099662537692456	0.0000014293299928	-0.0000137881907313	0.0000422250761481
11
REF_energy=-243.5691827748096046 charge=2 Properties=species:S:1:pos:R:3:REF_forces:R:3
Mg	-20.6075671298787313	42.4216989513126421	21.8895258670259771	0.0000373525741647	-0.0000010109946045	-0.0000015194149392
Mg	-20.5850281263056480	39.4630985019908849	22.2326119474226900	-0.0000865676050614	0.0000711255727393	-0.0000894056623321
Mg	-22.8759286223400125	40.8181798302228458	20.8961148318927421	-0.0000105732422903	0.0000067370950663	-0.0000561059545184
Mg	-22.5617932697584251	41.2601487958902666	23.8466792182147280	-0.0000312759328542	-0.0000004963893436	-0.0000190249353388
Mg	-18.4955698575145568	38.0671511012582755	19.7028175244866830	0.0000282710074539	0.0000094720693962	-0.0000443061105150
Mg	-23.4281282545757925	42.7681235875737400	29.1329775059274816	0.0000844215157076	-0.0000089475180776	-0.0000427223522248
Mg	-16.9060421449902272	37.4978845853899472	16.9922197088283049	0.0000934290129929	-0.0000814166516100	0.0000483203781658
Mg	-23.8252470748007497	41.4266330364710385	26.4544581175129849	-0.0000293553254756	-0.0000352613639396	0.0000539740018334
Mg	-18.6598636666572375	39.9341094231434468	17.0747105596467392	-0.0000417176891361	0.0000578504756949	0.0001140928682714
Mg	-26.3507356688538259	40.5495710146027761	27.8628048697521145	-0.0000099417196481	-0.0000028845712486	0.0000540204645722
Mg	-20.2230714601291695	40.6320276600213504	19.5201486581859847	-0.0000340425958534	-0.0000151677240728	-0.0000173232829744
11
REF_energy=-242.5348010071519411 charge=2 Properties=species:S:1:pos:R:3:REF_forces:R:3
Mg	-20.0669083518847522	44.1924622532886460	17.4531919756350433	0.0001819913857597	-0.0000620764054922	0.0000789982355758
Mg	-26.2343835687092408	42.9755867583466795	18.5420686416550424	-0.0000802059165284	0.0001214032692191	-0.0001557331639805
Mg	-26.0229569758151271	34.6792579397609941	29.9877503782577968	-0.0000395368214438	0.0000056273531992	-0.0000214574004415
Mg	-22.4088830616973098	42.8845954411463808	19.0303265639089503	-0.0000247469681162	0.0000091116771891	-0.0000028828104072
Mg	-24.9262291313612607	39.8972561875399094	22.8992400225279127	-0.0000641212176013	0.0000418966189932	-0.0000408820877474
Mg	-25.2818944490799211	38.1625309502114050	25.2525047017435469	-0.0001213595507621	-0.0001242661882322	0.0002047130916831
Mg	-24.5808628675046208	41.6109983227557905	20.5755670071803642	0.0000471975684308	-0.0000696911836838	0.0000560004949213
Mg	-26.4112589611586088	32.9174287872009614	32.3889028612195133	0.0000196862717576	-0.0001182090942470	0.0001350013171187
Mg	-28.0488755473063804	44.3787943078069560	16.4385824534675393	-0.0000072399748406	-0.0000794368507945	0.0000813505152173
Mg	-25.6467675418266481	36.4246906292705361	27.6128479349838578	-0.0000563131243477	0.0002003600598763	-0.0002167523638372
Mg	-26.8149134475198530	31.1118486090162527	34.8516704875459524	0.0001446483476920	0.0000752807439729	-0.0001183558281023
11
REF_energy=-243.0045769614233961 charge=2 Properties=species:S:1:pos:R:3:REF_forces:R:3
Mg	7.1524701938355086	-2.4718290169073533	-0.8621173375618977	-0.0002003017152353	0.0001721411948740	0.0000651164150863
Mg	9.5441914292393566	-4.3472592061769326	-0.8329003549804356	-0.0000133174647116	0.0000584284547949	0.0001434574507840
Mg	4.4718909308249213	1.5315545118830394	-3.0210678929555730	-0.0001898745328496	0.0002120466710537	-0.0001830830867311
Mg	2.9479014580806298	3.7870099848146062	-4.2216905162899110	0.0002764437969784	-0.0002534396463419	0.0001500413582876
Mg	1.3727404177540579	6.1157642917618906	-5.4539195380076153	0.0000085433453873	0.0001555274332253	-0.0002841078933841
Mg	6.5854303577319717	0.5085422157470626	-1.0590860156378730	0.0001547211830419	-0.0001978742997002	0.0001491952151549
Mg	9.7888884724153957	-6.4740526424386386	1.3526933559674121	0.0000230976596499	0.0000752100436399	0.0001156148198147
Mg	11.2683077862959564	-8.7252355993828878	2.6152870786090192	0.0000017067268606	-0.0000383808202667	-0.0001288707991930
Mg	7.3821061550920817	-4.5840516446750588	1.3128550282823415	-0.0001109364032034	-0.0000379976189407	0.0000941189317288
Mg	12.7891863213501473	-11.0473230143605452	3.9261183245585820	0.0001788408506536	-0.0000244473468973	-0.0001907460630186
Mg	5.0638641669719338	-1.4641634294047163	-2.8276913939230037	-0.0001289234465717	-0.0001212140654411	0.0000692636514705
11
REF_energy=-244.2445977054916852 charge=2 Properties=species:S:1:pos:R:3:REF_forces:R:3
Mg	-0.7015082892818123	22.0170250865898431	-11.1974997062395154	-0.0000478939215492	0.0000576150765529	-0.0000010183066330
Mg	3.6002515816332910	25.3439858027799794	-10.9854027074035425	0.0000772886972258	0.0000456838227015	-0.0000141375842876
Mg	-1.3414407379209810	23.3520315214407752	-6.1256487035735772	0.0000049877235732	0.0000005173260351	-0.0000644613552525
Mg	1.2914805948250234	23.9112528727910387	-12.7288190192014845	0.0000602193626442	-0.0000477428285071	0.0000252879838742
Mg	2.8047609973042804	26.2344241089100834	-13.6951484107945891	-0.0000465179241982	0.0000046965329151	-0.0000751600489527
Mg	-1.6654382448397764	24.8331509243248085	-11.8630038056862830	0.0000618359876571	0.0000177501252427	-0.0000048106621431
Mg	1.0724582551265538	26.9601040985749627	-11.5046775997663371	-0.0000679690546243	0.0000416550132012	0.0000214151364714
Mg	-1.9396547302630136	20.9081623004338155	-8.2688457044531809	-0.0000496687399081	0.0000358855773144	-0.0000172354397928
Mg	0.6888817230993338	22.0300014984862926	-7.8735415187025009	0.0000099658436786	0.0000184047495230	0.0000293989499315
Mg	0.8638617960096481	24.3816344155602778	-9.8603835648499629	-0.0000375283421702	-0.0001162038123527	0.0000761556907224
Mg	-2.0010113765657289	23.8013537578902010	-9.0273681109179975	0.0000352803676711	-0.0000582615826261	0.0000245656360623