11
REF_energy=-244.0969011998589053 charge=2 Properties=species:S:1:pos:R:3:REF_forces:R:3
Mg	-0.7746673727408740	26.5806327205875448	-9.5991967271090441	-0.0000896984438648	-0.0000673430012895	-0.0000472289895269
Mg	-1.5995551741201481	23.8419938839134069	-9.8139306139674165	-0.0000708072382665	0.0000671216066601	0.0000116947300075
Mg	3.3909418975039634	23.2684776821575134	-11.1266881007159952	0.0000931122548933	-0.0001731690235199	0.0001269083246928
Mg	-0.8429861395198646	29.5355315467132193	-9.7542670861781282	-0.0000345053151994	-0.0000564202694877	0.0000971345777676
Mg	0.7830285075226102	21.6735534876626197	-10.6432172964277729	-0.0000133794984094	0.0000298387462029	-0.0000656854471868
Mg	-0.4017390350160676	22.0585639658090784	-7.7786972830926402	0.0000774860728312	-0.0001491908189651	0.0000043251768478
Mg	0.5937408401154656	16.4884296694330459	-8.7638102312196278	0.0000924515452525	-0.0000117184260102	-0.0000075111778753
Mg	0.1847715558501810	19.4195789405342474	-8.7356564693893866	-0.0000931188847195	0.0001265378072760	0.0000046761239408
Mg	-0.8017994102410929	25.0142073982512123	-7.0656650995742183	0.0000414250708280	0.0001390541129591	-0.0000256026875469
Mg	1.3733699015792460	24.5201792236704001	-9.1404260622049804	0.0000333204681988	0.0000327235846895	-0.0001066220846072
Mg	-2.0836270886467405	20.8232807787363718	-10.0611696611683286	-0.0000362860315442	0.0000625656814848	0.0000079114534864
11
REF_energy=-259.8625150495232106 charge=-1 Properties=species:S:1:pos:R:3:REF_forces:R:3
Mg	1.2518551278070691	23.2046727196284621	-13.2299803560950497	0.0000179265528320	-0.0000485195011434	0.0000178482589415
Mg	-1.6222313997242808	20.8275473143166465	-11.1515962269387412	0.0000396062948650	0.0000064922679480	-0.0000007034728821
Mg	1.5376156672148944	24.1437716496336350	-10.4885450919569845	-0.0000336739451823	-0.0000186956402225	-0.0000216899825440
Mg	3.9455000720252924	19.7351972808696914	-9.0856219828505047	0.0001484573834000	-0.0000336791451770	-0.0000077505487605
Mg	0.9108582989937466	19.9096459868638753	-10.0094241017967072	-0.0000402443245331	0.0000130439018171	0.0000169788517997
Mg	2.4159219124493170	22.1449807933057343	-8.4469378706633638	-0.0001232335410942	-0.0000509991448133	-0.0001100297318211
Mg	-1.1647749622503429	23.7934752034203250	-11.5126941523178488	-0.0000787681832935	0.0001198625228696	-0.0000021522623223
Mg	-0.5026235333216128	22.4562288937484240	-9.0131558148869022	-0.0000145832853143	0.0000135046486742	-0.0000440247721853
Mg	2.9257975997479240	21.5762143484415070	-11.4664472466314518	-0.0000125326305453	-0.0000046624563546	0.0000068079147010
Mg	0.7063511371380715	20.3173739025234141	-12.9007940511054446	0.0000301101495630	-0.0000187154157417	0.0000441415718657
Mg	-1.5218509641023070	22.1306209553191948	-13.9082429283262261	0.0000669355293028	0.0000223679621436	0.0001005741732073
11
REF_energy=-244.4604689055742881 charge=2 Properties=species:S:1:pos:R:3:REF_forces:R:3
Mg	-1.7374970147980120	22.6379163688222462	-11.0091455761079065	-0.0000104853972585	0.0000230316199610	0.0000344926737216
Mg	0.3321888688833328	20.0861262354884538	-12.0405579254000461	0.0000366430325215	-0.0000222814701292	-0.0000324992958728
Mg	3.3066548759854846	24.2469512290614055	-10.7255807897537618	0.0000303882571276	0.0000151040909624	-0.0000373312856622
Mg	5.5943993159839840	22.9597795660234141	-12.7098242372901122	-0.0000768569928743	0.0000275724293553	0.0000065756906264
Mg	2.4309146319376023	19.2686062947366459	-9.8765076482170997	-0.0000498858046370	-0.0000090637904944	0.0000097516976882
Mg	-1.6310437412496017	23.1846963339542000	-8.1814419022888760	0.0000166158706604	-0.0000048170795026	0.0000004187338360
Mg	0.9987113871013857	21.9153819118146487	-9.4872963770164560	-0.0000073273648580	-0.0000139758037807	0.0000374790553219
Mg	0.2681704338084641	24.8830030757450089	-9.8269142632899396	-0.0000284845608171	-0.0000178888160344	-0.0000282788454652
Mg	3.1370911630069389	21.3750664625874940	-11.9166088873209226	0.0000356301758095	-0.0000101766497877	-0.0000097884723109
Mg	0.8442340196069203	23.2478063929638843	-12.2385953409145145	-0.0000117301605239	0.0000160582838739	0.0000333923887354
Mg	3.1497920951274438	24.1226743892303510	-13.7738744339743597	0.0000654929448499	-0.0000035628144236	-0.0000142123406183
11
REF_energy=-243.5576568112351481 charge=2 Properties=species:S:1:pos:R:3:REF_forces:R:3
Mg	2.0975328776209952	22.6748169800911050	-9.3647571084406671	0.0000262657846723	0.0002130680250834	0.0000126478771814
Mg	-1.7187464567980568	20.8774416534016751	-6.6607972647428690	-0.0000985412481948	0.0000537482019738	-0.0001930585846944
Mg	4.3120690134746820	23.7349593957550447	-10.9407913247551321	0.0000192281571997	0.0000621414849128	0.0001978777918662
Mg	6.5740807658995912	24.8292781381346543	-12.5516376523772255	0.0000074884718596	-0.0001163008108657	0.0000686073721991
Mg	-5.9480987059492829	20.6909621359697518	-2.9849491909289427	0.0000772990625863	-0.0001860681392517	0.0000614864951113
Mg	8.8925590140400423	25.9580282993199098	-14.2026963154051682	0.0000044150970020	-0.0002414997068654	-0.0000114392873024
Mg	1.2913146466644394	21.0455138102046782	-6.9349951860590719	-0.0002997994197089	0.0000985775837497	-0.0000283089206528
Mg	-3.9463300491564590	19.8439475520354733	-5.0924781847859242	0.0000952726865537	-0.0000087089298892	0.0000588451071244
Mg	-0.3592039025417236	23.3650057912882225	-7.7240458886980683	0.0000083447808140	-0.0000322639560076	-0.0001503887144080
Mg	-0.3720569279287038	20.9123300811992614	-9.3720692920044666	-0.0001167738610826	0.0001753812368065	0.0000151891812074
Mg	-5.5736857153604555	17.3307524454257056	-4.6472412948052648	0.0002768004882986	-0.0000180749896466	-0.0000314583176321
11
REF_energy=-243.6445394648252432 charge=2 Properties=species:S:1:pos:R:3:REF_forces:R:3
Mg	-20.5878995042966153	12.6032384087719613	14.9454640937252083	-0.0000169781199569	0.0000015872871786	-0.0000078922953858
Mg	-20.6151971306186468	9.6370717046754493	15.0359025186464095	0.0000410084803399	-0.0000041608493392	0.0000262246997482
Mg	-22.4206482738219286	11.0795447408452148	13.1102412412013258	-0.0000449088387544	-0.0000487819500029	-0.0000133977623864
Mg	-19.4410636242014263	11.0395861063945091	12.6989479495935100	-0.0000024731330131	0.0000011971464197	-0.0000281963088520
Mg	-25.1167474222601612	11.0637920879252647	11.7450307094224264	-0.0000098339457201	-0.0000056680984500	0.0000208578914013
Mg	-15.3387242358755298	11.1266233676043402	16.6928479641825547	-0.0000080772011576	0.0000390525746977	-0.0000040384561700
Mg	-10.0618537860656740	11.1768286366848333	19.3522209562685070	0.0000086988209093	0.0000585806374035	-0.0000209766424311
Mg	-4.6421738674737796	11.2493941456926869	22.0747569223904065	0.0000065812215239	-0.0000749166636452	0.0000439933981864
Mg	-17.9431123258085208	11.1075396341360904	15.3765648772916226	0.0000241655475279	0.0000052912661646	0.0000050405118722
Mg	-7.3861714323889762	11.2100452980594802	20.6970410985544078	0.0000101655389296	-0.0000109983015655	0.0000071309398992
Mg	-12.7083621267084350	11.1493833308615571	18.0198498491948911	-0.0000083483706285	0.0000388169511388	-0.0000287459758820
11
REF_energy=-244.1246541322256292 charge=2 Properties=species:S:1:pos:R:3:REF_forces:R:3
Mg	5.0750800011598258	21.1055241726394875	-12.6279887378110605	-0.0000262824592090	0.0000480806007066	-0.0000189765361648
Mg	0.6099683836247742	20.7237262815319205	-12.4619232348890705	0.0000675204126087	-0.0001619373994864	0.0000088855053762
Mg	0.1610443156730183	26.2688253791436317	-9.9936558439918102	0.0000485158797348	-0.0000829044316714	-0.0000303662241199
Mg	2.7355879754871846	24.8014994309596339	-9.4825897400180743	-0.0000746978954641	0.0000473492309721	-0.0000679776853701
Mg	1.5586864915471079	20.6167874758662855	-9.6204753965218153	-0.0000252176474641	0.0000384065022231	0.0001081610324847
Mg	2.7843429934268040	22.5972418887653781	-11.5533830514647438	-0.0000035932607118	0.0000172053590975	-0.0000377892370439
Mg	0.0339850105844415	23.1784925606457932	-10.5469904818801172	-0.0000399529574074	0.0000673612526704	-0.0001495651412926
Mg	1.9142839215767506	25.3922273447253133	-12.2656208322183851	0.0000220971211001	0.0000250743632105	0.0000099851164942
Mg	-1.3401171994083632	20.4419924426770514	-10.2673529646896835	-0.0000201333854951	-0.0000062144717047	0.0000438260110988
Mg	0.3394296074612845	29.1605750828607917	-9.3710040085540971	0.0000244777439698	0.0000357254013141	0.0001115512301640
Mg	2.8772599361524640	27.7401821957574164	-10.5213881118782737	0.0000272664483380	-0.0000281464073316	0.0000222659283733
11
REF_energy=-257.2903146745842378 charge=0 Properties=species:S:1:pos:R:3:REF_forces:R:3
Mg	4.0544272695144761	22.3283863968609531	-12.2702791267794264	-0.0000258407790403	0.0001457802985222	-0.0000717517389553
Mg	0.9891935935816031	22.6987700708393092	-13.0636376608311853	-0.0000183056412443	0.0000140347203800	0.0000115124449764
Mg	2.0239621176213891	20.0781059890177254	-11.3030972858820995	-0.0000539567983045	-0.0000101287328163	0.0000516023431259
Mg	-0.5745358661325124	21.6138468263451564	-10.6255989530300337	0.0000122066236332	-0.0001163825264064	0.0000390922202592
Mg	-0.3375135966536360	19.9624642008533542	-13.2233066651611573	0.0000006784492292	-0.0000608462115012	0.0000053494774775
Mg	-0.1042095578844872	24.6671814395197195	-11.1663018677743935	0.0001539385178316	-0.0000090195508168	0.0000187486118065
Mg	2.0842844689320108	23.0258250976944510	-10.0942933117355480	0.0000010510547692	0.0000608008960990	0.0000040094907436
Mg	1.4926890818397005	20.6539655607073982	-8.4650127565029294	-0.0000915626955638	-0.0001015429144711	0.0000405673674132
Mg	2.5007854947734272	20.4597276240211592	-14.1485786866999934	0.0000340523395186	0.0000043790001032	-0.0000916428244995
Mg	-2.1942467568321256	23.8034072648884099	-9.1880393132640545	-0.0000036396653697	0.0000099270996616	-0.0000461379912534
Mg	-1.2750509917098667	21.4712071939524982	-7.6292803848378563	-0.0000086214054593	0.0000629979212457	0.0000386505989062
11
REF_energy=-242.3584614682824281 charge=2 Properties=species:S:1:pos:R:3:REF_forces:R:3
Mg	-3.5564041589441659	24.8374275194410430	-9.5600039038847697	-0.0001091010551595	0.0000784126956950	-0.0001214558105279
Mg	2.2038518460578569	22.0420167839013033	-5.0800513147772905	-0.0000198971760157	-0.0000403863032260	-0.0000229647148504
Mg	1.6673646761395804	19.0312998084789697	-9.0316941673034545	-0.0000216614776679	0.0000280964928929	0.0000440656694706
Mg	0.8101908648626638	21.4145947597889688	-7.5722022705246070	0.0000973788000628	0.0000506443235776	0.0001006750810319
Mg	3.6368309560990975	22.7005493663282607	-2.5044679833166383	0.0000311467274136	0.0000074643443240	0.0000441006800294
Mg	-1.3518689738052483	23.1069850437297042	-8.5585369147800776	0.0000220658631370	0.0000521033757763	0.0000314329381106
Mg	3.4475533889230583	14.0492072578155671	-12.0908109559331578	-0.0000044607574936	0.0000309200788550	-0.0000124279352421
Mg	5.0996013635520923	23.3810731356591859	0.1329397175915582	0.0000383710447571	-0.0001035073725855	-0.0000221983357118
Mg	-6.5759506665515612	25.1175765473042780	-9.7258147489801789	-0.0000113608398884	0.0000317650726290	0.0000134198541635
Mg	-4.1710061679516599	27.4162718409240682	-11.0421945750542214	0.0000065090108010	-0.0001916309824630	-0.0000696610997155
Mg	2.5481115190023256	16.5694810133030757	-10.5426952159606788	-0.0000289901399461	0.0000561182745246	0.0000150136732416
11
REF_energy=-258.3409988453512369 charge=0 Properties=species:S:1:pos:R:3:REF_forces:R:3
Mg	-2.4963882724905986	22.2562487976385910	-13.3411681591840541	0.0000143081871779	0.0000361249570962	0.0000158246507495
Mg	0.4653201700881250	23.0741629521772218	-12.9588900813050341	-0.0000034507903073	-0.0000432442812777	-0.0000415489669394
Mg	4.1385329469321901	21.3332378856482379	-8.8016690565091640	0.0000296339721063	-0.0000547860397780	-0.0000020560317673
Mg	-0.6297336829755427	19.9488856892865698	-9.3267677830168321	0.0000199758381731	0.0000132349253969	0.0000277843230750
Mg	-0.4065983730259648	20.2438590375982272	-12.2603789896544626	-0.0000132542907832	-0.0000060913103529	-0.0000154743225271
Mg	-1.2765987141203217	22.5787041664190724	-10.5137867965576710	-0.0000078220555982	-0.0000247967529762	-0.0000030536280805
Mg	0.8222379509980547	24.6613054511720513	-10.4897637108556587	-0.0000266113030165	0.0000212160927884	0.0000265416596528
Mg	1.1774129106868831	22.2368855190416816	-8.8346752939144508	-0.0000652102995689	0.0000296812510093	0.0000026190854861
Mg	2.2706924034967382	20.7738871882391578	-13.3979344633391673	0.0000183701656883	0.0000268413703675	0.0000038391052544
Mg	2.9194166924050706	22.7324112293596663	-11.2798554867369898	0.0000124410984896	0.0000081637623092	-0.0000434160351328
Mg	2.0474369131671568	19.9021914435405058	-10.5812637309632507	0.0000216194776387	-0.0000063439745826	0.0000289401602294
11
REF_energy=-244.2841306639986954 charge=2 Properties=species:S:1:pos:R:3:REF_forces:R:3
Mg	1.0159709978128433	21.7153637417336789	-13.8965377980875111	0.0000894735608210	0.0000611985115524	0.0000805006622997
Mg	2.5617838499203005	19.9002227747554734	-11.1846799440996794	0.0000270776881246	-0.0000000325503288	0.0000080369432884
Mg	3.6991759232668775	21.7772596193467258	-9.1086390966823139	0.0000086050573804	-0.0001701804855326	0.0000408298509703
Mg	0.6688459878296898	21.2545164673322908	-9.2284562152100467	-0.0001089462618764	0.0000157528716463	-0.0001980478729646
Mg	2.7449013011240768	19.1869725547418142	-8.2292598210867265	0.0000236910136666	-0.0000053949261053	0.0000270534970400
Mg	1.2852283683011192	24.7451840370243730	-13.4432207921610694	-0.0000776093733730	0.0000365352020807	0.0000339978099189
Mg	-2.2736270835847767	22.3282065960496290	-9.1871483197176307	0.0000186985118937	-0.0000286983417652	-0.0000477735805215
Mg	-1.0311416373412021	23.7737099221261907	-14.8596854607438900	-0.0000653907304606	0.0001367753092766	0.0000121333924659
Mg	2.1283402763451211	22.8167356611202194	-11.3781762310353631	-0.0000486926457768	-0.0000831981206270	-0.0002402163166531
Mg	3.0812600082165922	16.7837293052286256	-6.4784837734869045	0.0000151829243131	0.0001072420472912	0.0001279756900823
Mg	-0.8453174669370362	23.0477073674435644	-11.8573992382720910	0.0001179102552875	-0.0000699995174882	0.0001555099240738
11
REF_energy=-243.6445394648252432 charge=2 Properties=species:S:1:pos:R:3:REF_forces:R:3
Mg	-20.5878995042966153	12.6032384087719613	14.9454640937252083	-0.0000169781199569	0.0000015872871786	-0.0000078922953858
Mg	-20.6151971306186468	9.6370717046754493	15.0359025186464095	0.0000410084803399	-0.0000041608493392	0.0000262246997482
Mg	-22.4206482738219286	11.0795447408452148	13.1102412412013258	-0.0000449088387544	-0.0000487819500029	-0.0000133977623864
Mg	-19.4410636242014263	11.0395861063945091	12.6989479495935100	-0.0000024731330131	0.0000011971464197	-0.0000281963088520
Mg	-25.1167474222601612	11.0637920879252647	11.7450307094224264	-0.0000098339457201	-0.0000056680984500	0.0000208578914013
Mg	-15.3387242358755298	11.1266233676043402	16.6928479641825547	-0.0000080772011576	0.0000390525746977	-0.0000040384561700
Mg	-10.0618537860656740	11.1768286366848333	19.3522209562685070	0.0000086988209093	0.0000585806374035	-0.0000209766424311
Mg	-4.6421738674737796	11.2493941456926869	22.0747569223904065	0.0000065812215239	-0.0000749166636452	0.0000439933981864
Mg	-17.9431123258085208	11.1075396341360904	15.3765648772916226	0.0000241655475279	0.0000052912661646	0.0000050405118722
Mg	-7.3861714323889762	11.2100452980594802	20.6970410985544078	0.0000101655389296	-0.0000109983015655	0.0000071309398992
Mg	-12.7083621267084350	11.1493833308615571	18.0198498491948911	-0.0000083483706285	0.0000388169511388	-0.0000287459758820
11
REF_energy=-258.6982437919625681 charge=-1 Properties=species:S:1:pos:R:3:REF_forces:R:3
Mg	2.2604035035184658	-3.2392472300441639	-1.8415295405930925	-0.0000260828244077	-0.0000571014748069	0.0000498032499182
Mg	1.8219734384498607	-1.3093104268193836	-3.9921573628708513	-0.0000506415387472	-0.0000110078773843	-0.0000118676129928
Mg	4.1578180549940917	-2.0502517758786740	0.3644293593026116	0.0000348763334848	0.0000161811294956	0.0000245420243380
Mg	1.8075430056152049	2.7460915396184165	3.3203834147648803	-0.0000331043295383	0.0000407286883284	-0.0000278283037531
Mg	3.2607553103904521	0.1750628456477639	2.1229020323352699	-0.0000327633936511	-0.0000332403892198	-0.0000267450037105
Mg	4.5681422981786248	2.8749966949934120	2.3598639120759377	0.0000183290680898	0.0000353781664687	-0.0000232666245948
Mg	4.4697496858567627	-1.4884314282664584	-2.6245843281873209	0.0000703326894128	0.0000218234168052	-0.0000509708708163
Mg	3.8983462538203284	1.4422312545069957	4.8919717533324949	-0.0000085791772605	-0.0000821335770864	0.0000336336332349
Mg	2.3949167093699235	2.4965525718960455	0.2428676652056097	0.0000211241082573	0.0000358691428199	0.0000172820783301
Mg	4.9202517484591741	0.8448470744881333	-0.2732747230110141	0.0000121719087848	-0.0000003422406818	-0.0000073790164903
Mg	2.2298896391624972	-0.1304438004024100	-1.1425497205094906	-0.0000056628444246	0.0000338450152612	0.0000227964465367
11
REF_energy=-258.8945180673659365 charge=-1 Properties=species:S:1:pos:R:3:REF_forces:R:3
Mg	1.6694110742304233	21.2911438085284956	-15.9070853388062119	0.0000460359188511	0.0000100393658444	-0.0000738609637851
Mg	-0.8957918094494545	21.5602456520919006	-10.1913373370726728	0.0000773279944148	0.0001156826873513	0.0000082867096223
Mg	-0.0087259470848381	21.5107508081417933	-13.1994608235386490	-0.0000449056053342	-0.0001147786528169	0.0000534149404920
Mg	2.0091430122513265	22.1131231044731749	-10.9651671614887061	0.0000522347095166	-0.0000660748183210	-0.0000022284476806
Mg	0.5809755528649151	19.3044570172053085	-11.3279740341102571	-0.0000841963980572	0.0000817816941422	-0.0000136027443305
Mg	4.7445904987968106	22.7674136052316989	-12.2527831758683163	0.0000224917741961	0.0000319431661748	-0.0000601185389123
Mg	2.7847873185150043	20.3487350456273894	-13.3493340912789478	-0.0000066857623014	-0.0000423957809660	0.0000042905328463
Mg	4.6409230996624808	21.8849671388675944	-15.2835124148129786	0.0000059836230481	0.0000714577679863	-0.0000050819460935
Mg	2.4842511724245155	23.5063429572294886	-13.8011066427247879	0.0000378104075838	-0.0000124141404132	0.0000382018692655
Mg	3.6375427237900197	19.1703440422666205	-16.2041706534805989	0.0000078936399280	-0.0000387530601915	-0.0000086802288531
Mg	2.9096109050713550	24.9334270249947174	-11.1395680617393040	-0.0001139903018458	-0.0000364882287904	0.0000593788174290
11
REF_energy=-244.3086681857664360 charge=2 Properties=species:S:1:pos:R:3:REF_forces:R:3
Mg	4.5681714048249811	26.5303633972710990	-18.7123022453056507	-0.0000511437557966	-0.0000181184942647	-0.0000867057879023
Mg	0.2896258113926424	21.9560110074116395	-6.6934992285827644	-0.0000346494861393	-0.0000587642368864	0.0000369224725349
Mg	0.0566878061816873	22.2957069070724074	-12.7079447589850325	0.0000417373372588	-0.0000034715712632	0.0000350242384254
Mg	2.7542409421049365	22.2531787979290030	-11.4358857266740035	0.0000123532274556	0.0000128204446075	0.0000286300805317
Mg	3.3800633129417550	25.2769256096205091	-16.2068441107568759	-0.0000415708201962	-0.0000395392199794	0.0000910290079747
Mg	2.2824008425639630	20.2860835038822138	-8.2804597289399453	-0.0000119816060538	0.0000032442397590	0.0000425932601245
Mg	0.8204351316227648	19.1902861422802360	-5.8176226353853577	-0.0000212020641590	-0.0000116843844827	0.0000056157338212
Mg	-0.6706501658833792	19.5407034310328811	-8.3373352475013842	-0.0000092915432425	0.0000484906258238	-0.0000806053186078
Mg	0.3100984031574761	22.0489574824992118	-9.7191189909040308	0.0000239169324778	-0.0000446792980622	-0.0000086350082964
Mg	2.1615253968664789	24.1136534100344235	-13.8094329234454669	0.0000874507711142	0.0000734479662604	-0.0000774747174393
Mg	0.9851870655256449	24.6322415150521152	-11.1080576148601970	0.0000043810072811	0.0000382539284879	0.0000136060388335
11
REF_energy=-256.9802037495547324 charge=0 Properties=species:S:1:pos:R:3:REF_forces:R:3
Mg	-0.4160817870949682	25.1447160156413325	-9.0203739876313556	-0.0000061821046182	-0.0000173089276025	-0.0000106689959431
Mg	1.8813515001996111	25.0134660686504517	-11.2499941878542700	-0.0000379797158165	0.0000259111290478	0.0000033395525345
Mg	1.5376952450918029	22.3067193861031043	-12.8348397767574376	0.0000533996971513	-0.0000322901232826	-0.0000411545131790
Mg	1.6962701193938359	19.7224198354521008	-10.9665978301041864	-0.0000022768114658	-0.0000248007883956	-0.0000053149290128
Mg	3.8618559553827256	20.0297441777843837	-13.1086044194960341	-0.0000263740077623	0.0000045826382651	-0.0000000456740752
Mg	3.0837600579738318	17.3215180221587310	-12.1583770743781141	-0.0000091765686897	-0.0000134406317384	0.0000276749249613
Mg	-2.3174422534363543	22.6894658899227579	-9.4411617430784620	0.0000411511010008	0.0000205582963926	0.0000324364090708
Mg	0.6529538872590505	22.5059339115288957	-9.9018387829722148	-0.0000432538943503	0.0000016956425071	0.0000077134979377
Mg	1.0477466687538042	19.2238651302444481	-13.7123961703050394	0.0000054969947610	0.0000456401287962	-0.0000123868627791
Mg	-0.8724603206270852	24.0238388120610082	-11.8114013778373046	0.0000011462166633	-0.0000101027134431	0.0000108859603893
Mg	-1.0972582966652045	20.9582814366946018	-11.8971966290003710	0.0000240490931263	-0.0000004446505466	-0.0000124793699045
11
REF_energy=-259.8649132535404078 charge=-1 Properties=species:S:1:pos:R:3:REF_forces:R:3
Mg	3.0927530969446781	23.9559128515635855	-11.4832411067645044	-0.0000335237561983	0.0000371349273915	0.0000347262125795
Mg	0.3284444642080208	23.4963537528658293	-12.4572130995845196	0.0000753691294808	-0.0000423552422958	-0.0000905971889526
Mg	0.8217896557645361	20.1340546487203333	-9.0011804976326211	-0.0000325775185450	0.0000105610393039	-0.0000327790567399
Mg	2.8529408108603187	21.7107446761151195	-13.3567583844300337	-0.0000792488754389	-0.0000089659085413	-0.0000549908333020
Mg	-0.8720432932008021	21.1291252393309819	-11.1748117405917533	-0.0000033214879671	0.0000629791440134	0.0000109226812007
Mg	-1.8395254130906893	23.7724418874140433	-10.1666783143133532	-0.0000505028903680	-0.0001109640016086	0.0000630811201562
Mg	3.2683481790956126	21.2086334304821200	-10.3650737237958097	-0.0000610936043085	-0.0000151967494785	0.0000371931939844
Mg	0.9959986457815009	22.9902788464486179	-9.6326736463688611	-0.0000579442646874	-0.0000991835885245	0.0000249580237014
Mg	1.4831895145591310	19.4300344437938719	-11.8407728508566557	0.0000501253845922	-0.0000509978810165	0.0001023204533844
Mg	0.0822658291381855	20.9559062765500066	-13.9693627587837259	0.0000670486097819	0.0000979612651683	-0.0001162276203666
Mg	-1.7591816680208732	21.7721951753529837	-7.8809148690045774	0.0001256692736583	0.0001190269955882	0.0000213930143545
11
REF_energy=-244.3372904203392864 charge=2 Properties=species:S:1:pos:R:3:REF_forces:R:3
Mg	-21.3669457912006955	40.0957322948850177	20.1925242941729728	-0.0000895469600519	0.0000478819087276	-0.0001734890935484
Mg	-21.8973488265741629	42.7783846055007473	18.9458782994264858	-0.0000471768568396	-0.0000277878889255	0.0000027867963282
Mg	-21.4506897702871377	40.4862800737596586	23.2275344246153495	-0.0001900282599239	0.0002805331277799	0.0002215570625165
Mg	-21.1493303773644143	43.3067935607760504	22.0121934279584686	-0.0000248142361951	0.0000719845588646	0.0000100569709803
Mg	-18.6134712426334303	38.7325321911470652	19.3827256079867709	0.0000377229589620	-0.0000439130180289	0.0000130498717620
Mg	-23.6385574533310887	41.9175668692056149	21.2442461163555407	0.0000298951930882	-0.0000060688170090	-0.0000458443598179
Mg	-22.0132613750128527	42.7361215506541967	25.1680000897488263	0.0002284857391175	-0.0000627344126216	-0.0000207606313856
Mg	-19.2881849672335335	41.4153461164860275	18.1751210142474378	0.0000660185785747	-0.0000174206258113	0.0000111368803946
Mg	-18.6551574824532977	41.0162432167351199	21.3289926473776426	0.0000499650016599	0.0000527356195038	0.0000744107073707
Mg	-19.7759093660787073	38.3367736163399044	22.1019217617728643	0.0000268981051752	-0.0001776136633374	-0.0000769917417980
Mg	-23.8598695118637210	44.1449855945971237	23.3021434816853201	-0.0000874192635670	-0.0001175967891421	-0.0000159124628026
11
REF_energy=-243.6971133488324881 charge=2 Properties=species:S:1:pos:R:3:REF_forces:R:3
Mg	1.2737592816393770	21.0450892847766795	-12.9559936389575281	-0.0000125042103828	0.0000433302927522	-0.0000239530239450
Mg	1.5916830093493286	23.7646490640029953	-11.5580837945527968	-0.0000393445135571	0.0000028483000278	0.0000278642110500
Mg	0.7086154550111617	21.2930553448807203	-9.9750681638523275	-0.0000304651052132	0.0000223476872345	0.0000321332798855
Mg	0.5975907314136588	26.4193312185203872	-10.8784553621825513	-0.0000275904768645	0.0000545630369817	-0.0000078432699680
Mg	3.5290092024241111	21.4194849599465975	-11.1126455750555291	0.0000210511909440	0.0000597591331568	-0.0000144548015771
Mg	1.9648230039608656	18.8508507090761341	-11.0166621170436194	0.0000446018673346	-0.0001903702451629	-0.0000057484006248
Mg	2.9908639735563320	12.9599666178077850	-11.0700593661658555	0.0000480514953485	-0.0000366278342172	-0.0000020634553273
Mg	-0.7216533977278682	32.2597841140874024	-10.4534234166580919	0.0000430788464825	0.0000805245960867	0.0000299002709755
Mg	2.4696998114069086	15.9686141242346906	-11.0473349737213997	-0.0000215115907204	0.0000591558794144	0.0000008557069546
Mg	-0.4566987405782634	24.0598753645601455	-9.1048314127515884	-0.0000550324535758	0.0000028764078068	0.0000270058295067
Mg	-0.0736251970075434	29.2802570765512549	-10.6388566029817859	0.0000296649502041	-0.0000984072540808	-0.0000636963469301
11
REF_energy=-242.4172041710911571 charge=2 Properties=species:S:1:pos:R:3:REF_forces:R:3
Mg	-4.2833869085594580	-4.7472914993569217	1.0334038731489068	-0.0000768985091284	-0.0000032914575484	-0.0000305456908195
Mg	14.4862405396850136	-5.3227899845543849	-1.8648878785498915	-0.0000576303510033	-0.0000389498562829	-0.0001096757367514
Mg	11.6424736775674429	-4.1628081341207395	-2.1894244915820580	0.0000524077906122	-0.0000355685947347	0.0000017673239864
Mg	6.1219365127093539	-2.0752134970310059	-2.7268637012738526	0.0000577419718352	-0.0000427235971921	0.0001465320075194
Mg	6.7106613931928036	0.5786680848952224	-3.9133795298991600	0.0000031869098629	0.0001033316626516	-0.0000427303276553
Mg	3.3451863403361757	-2.7480191623325956	-2.2406984092580777	0.0001242332832875	0.0000526714570295	0.0000257311469723
Mg	7.2779355626924715	3.3826451386624918	-5.1577509011540164	-0.0000821636540167	-0.0000567908177236	-0.0000607783521441
Mg	-2.3028878968546125	-4.1986199785941984	-1.1951720731490403	0.0001196048279703	0.0000376731457774	-0.0000191872275393
Mg	-4.9409112254770902	-4.8621348193001230	-2.5311795983142642	0.0000463716763287	-0.0000394362055749	-0.0000754800991811
Mg	0.5169822523109574	-3.4645181691829579	-1.7249102616124949	-0.0001580684200867	-0.0000098885835875	0.0000858755506746
Mg	8.8433378650389773	-3.0829150051902463	-2.4748994596381038	-0.0000287855256617	0.0000329728471855	0.0000784914049379
11
REF_energy=-259.8241261919206408 charge=-1 Properties=species:S:1:pos:R:3:REF_forces:R:3
Mg	2.2582185816001559	20.4783241150721054	-10.9619258228237815	0.0000113725780381	0.0000101057174356	0.0000220482978780
Mg	1.6645058547940896	21.5483031003250822	-8.2877771397845077	-0.0000608511283000	-0.0000211306701493	-0.0000260647051731
Mg	-1.2678034115374235	23.6987808168051899	-11.7292364623736951	0.0000224109608377	0.0000258857668247	-0.0000321290373100
Mg	-2.4247861568591906	18.5976196089055001	-10.3142922151484093	0.0000640687443192	-0.0000831725688492	0.0000967612908573
Mg	3.3076559540984003	23.2140235686511822	-10.1148159468209435	-0.0000399648801090	-0.0000559378004152	0.0000374916947854
Mg	1.5572809418312157	24.4974149508176389	-12.1686942263602198	0.0000107940634733	0.0000159690048004	0.0000093052991188
Mg	-0.6219522543313730	21.2209094328589494	-10.1863989526743346	0.0000300643291853	0.0000509435839012	-0.0000400978050046
Mg	0.4872296558817955	23.9624816383554595	-9.4178398714934684	0.0000169466046054	0.0000169951546927	0.0000020023431277
Mg	3.4290108266042236	22.3738039461990894	-12.9164344782328726	0.0000120337712445	0.0000102847745656	-0.0000122680433673
Mg	-0.0408217677046389	18.9044422856553602	-12.1297595359497308	-0.0000693413364788	-0.0000222625851735	-0.0000212932588067
Mg	0.5338807316004330	21.7436255844239170	-12.9862651719064317	0.0000024662931843	0.0000523196223671	-0.0000357560761055
11
REF_energy=-244.1686615512750791 charge=2 Properties=species:S:1:pos:R:3:REF_forces:R:3
Mg	-20.3120459271190441	40.5431976617518686	21.2837481221439830	0.0000789216936046	0.0000166602402046	-0.0000835497031706
Mg	-21.6906083321787229	42.8669532129883351	20.0113648725640765	0.0000566373929852	-0.0000030187866019	0.0000350582549912
Mg	-18.6652922616878456	38.2317214348322167	22.3000433369226485	-0.0000047767332558	-0.0000882595650871	-0.0000217011818112
Mg	-21.8243873928237413	38.2463895357230541	22.6063360160187088	-0.0001043603111998	-0.0000373974799732	0.0001450831929738
Mg	-20.1400943899954008	40.6965412592322764	18.2921176385583628	-0.0000238571199994	0.0001078659642100	-0.0000587470911488
Mg	-20.2639582198274866	40.1035555351474002	24.3036322352221354	0.0000635551497941	0.0000731134377280	0.0000176032466420
Mg	-24.2518895591534225	44.0333887751112485	21.1047465167634201	-0.0000888903415694	-0.0000592830322461	-0.0000715451293259
Mg	-19.8965629543387621	37.1279739887722897	24.6400260899510677	0.0000133909213267	0.0000088818110421	0.0000058377327012
Mg	-20.0287383186638266	43.5914555423948897	17.6780500080015059	-0.0000044428377692	0.0000815977832067	0.0000308733366359
Mg	-18.5282521048765219	42.6069395267091195	20.0333816064725276	-0.0000135364143779	-0.0001091436546757	0.0000459704985287
Mg	-22.8811750234151390	41.5210583138632643	22.5801581862056970	0.0000273586004607	0.0000089832821924	-0.0000448831570163
11