11
REF_energy=-244.1012387666350207 charge=2 Properties=species:S:1:pos:R:3:REF_forces:R:3
Mg	-1.8060026183749467	24.7304909980502821	-11.4286089581966603	0.0001341778213528	0.0001370782046820	0.0000134585818102
Mg	0.6215657244445278	23.8335520815231909	-6.9167936321271730	0.0000659428796508	-0.0000427061326834	-0.0000166760219722
Mg	5.4069046209958032	22.7377834160424719	-8.9558226982351066	0.0001425069162998	-0.0001094351857585	-0.0000449982684367
Mg	-2.0938359124440757	24.6177271884650573	-8.2311655896850322	-0.0001444908924804	0.0000336890564232	-0.0000210615918372
Mg	2.5828065295849774	23.4255109717279524	-9.2315497768735906	-0.0001642436008638	0.0001135674703007	-0.0000589947707016
Mg	0.5378982426826374	25.5160409353191575	-9.4364445276077689	0.0001091923659159	0.0000996812811566	-0.0000769673627591
Mg	-3.6227356600803251	22.8388878404745341	-10.0855924695264232	-0.0000861135617438	0.0000260020159972	0.0000901321018283
Mg	-0.2666368762798894	22.5094706651600731	-9.5831486981604446	0.0000312729730734	0.0000379488114746	-0.0000646483962617
Mg	-2.0271073462335858	20.1752291957582379	-10.3979117347042003	0.0000732717254344	-0.0000483377625929	0.0000462254531157
Mg	8.3751392515536462	22.1350830186106897	-8.7214858932190271	-0.0000787476536949	-0.0000445183842456	0.0000876514935804
Mg	-3.8953240041494088	26.1233707394507562	-9.9275049441966789	-0.0000827689729442	-0.0002029693747541	0.0000458787816339
11
REF_energy=-259.4515562632933552 charge=-1 Properties=species:S:1:pos:R:3:REF_forces:R:3
Mg	-16.5830901376860957	10.3696677320864836	19.4867983802715443	0.0000214348625516	0.0000127599567908	-0.0000456411763396
Mg	-14.7888625162459881	8.5759857459944175	21.1869679659354304	0.0000291992236254	-0.0000700759319808	-0.0000346143329615
Mg	-15.2567270251156959	7.8660993993159396	18.3122002142989615	0.0000478249892098	-0.0000045007242380	0.0000072710730016
Mg	-13.6702471829345598	10.4666191624210132	18.9540658077697941	0.0000359264186629	-0.0000032475076850	0.0000740900826189
Mg	-14.3789446379731238	11.5076222401218971	21.6371198723550862	0.0000122972855180	0.0000622407634383	0.0000461873566080
Mg	-12.6193150349364203	7.2409451057676542	19.6748205597832673	-0.0000668189489956	0.0000034512522165	-0.0000317907491377
Mg	-12.7671819944081246	8.4540298040005588	16.8075218958490424	0.0000154077757744	-0.0000498860504137	0.0000483542763246
Mg	-17.0703083837510157	10.4858496508933907	22.3926101257698598	-0.0000227263562309	0.0000231955001230	0.0000093818581299
Mg	-11.9417081515723567	11.2950204603535287	16.7775222714538934	-0.0000418538410000	0.0000044465441587	-0.0000486107899125
Mg	-10.7040754743751769	9.4795603191939630	18.7797359694048787	-0.0000061474740062	0.0000620510427528	-0.0000231681195261
Mg	-11.9897897814359222	9.6062008399035577	21.4454175157215161	-0.0000245439351093	-0.0000404348451625	-0.0000014594788056
11
REF_energy=-243.7598152130296967 charge=2 Properties=species:S:1:pos:R:3:REF_forces:R:3
Mg	-1.1608531937578153	24.1960720399057330	-7.7788044389527862	-0.0000681080697054	0.0000098247130056	0.0000873743604377
Mg	1.3353153994412643	24.5795846816010553	-3.7608472605291885	0.0000654888870020	-0.0000120705843818	0.0000089791454286
Mg	1.4925182263926977	22.8221728124733829	-6.1782922154075361	0.0000273736366993	-0.0000749397819889	-0.0000475852615335
Mg	0.4703620862446135	21.9345091593540538	-8.9008174953542554	-0.0000543899354426	-0.0001329615290141	0.0001199686441299
Mg	2.9564774276441712	20.5374435967904923	-7.5832121855386996	0.0000154600275277	0.0001693379132397	-0.0000348913666521
Mg	-3.6856226588318788	23.7543711294924584	-11.9515913166372147	0.0000993868130990	0.0000072445601093	-0.0000982965677104
Mg	1.8044586950228416	19.6513007684431606	-10.4893499262431611	0.0000026723335712	0.0000416481723713	0.0000034583623563
Mg	-0.5832437134392460	21.0725014561720734	-11.6603947348350818	-0.0000627471228386	-0.0000108247365400	0.0000035701722973
Mg	-1.0194364612367357	25.7655001162357564	-5.2253420144511606	0.0000010281081144	-0.0000033978216504	-0.0000220303517910
Mg	-0.7567548608043290	23.9959661233391621	-10.8069362613446316	-0.0000021254155248	-0.0000537791922019	0.0000058815222932
Mg	-2.5223092536259593	22.0917927628491988	-9.5373344456542331	-0.0000240392625021	0.0000599182870512	-0.0000264286592561
11
REF_energy=-257.0252793157635551 charge=0 Properties=species:S:1:pos:R:3:REF_forces:R:3
Mg	6.0069722900710172	0.6126220348422502	-2.4263230352182661	0.0001367573661709	0.0000508733502541	-0.0000336628493463
Mg	4.8277735783909481	3.3908297139505752	-1.8655093512632221	-0.0000141611805420	-0.0000798238647473	-0.0000248476655539
Mg	3.0417555944432144	1.0094064279327193	-1.5198739043792464	-0.0000855392755440	0.0000363549313294	0.0000171887190961
Mg	3.7006507647010953	-3.9382431913476124	-0.1523444346612443	-0.0000368243622851	-0.0000004729823744	-0.0000404367424403
Mg	0.6887853975795865	-0.6975867252477734	-2.5394062352659463	0.0000082999476233	-0.0000124572225348	-0.0000064488028641
Mg	6.0238222680542730	1.7412023736015640	0.2516652891992713	0.0000021923644502	0.0000431913087388	0.0000815463730462
Mg	1.0148063997331711	-3.6107349617693263	-1.5501348464855416	0.0000024651556264	-0.0000324990997568	-0.0000132692086510
Mg	2.0071285313629366	-1.3663169285905257	0.0857179040294967	0.0000349964634950	0.0000395062333600	0.0000308527025830
Mg	3.4744547070758647	-1.7228408286411150	-2.5806071573557863	-0.0000675333718767	-0.0000255747116787	-0.0000742942490793
Mg	1.2260420675273540	-3.8802099317290435	1.5378096561972945	0.0000945114650790	0.0000679689892169	0.0000127033908255
Mg	5.1233172690256898	-1.1972689374285010	-0.0565719583952468	-0.0000751645721970	-0.0000870669318071	0.0000506683323841
11
REF_energy=-243.6971133488324881 charge=2 Properties=species:S:1:pos:R:3:REF_forces:R:3
Mg	1.2737592816393770	21.0450892847766795	-12.9559936389575281	-0.0000125042103828	0.0000433302927522	-0.0000239530239450
Mg	1.5916830093493286	23.7646490640029953	-11.5580837945527968	-0.0000393445135571	0.0000028483000278	0.0000278642110500
Mg	0.7086154550111617	21.2930553448807203	-9.9750681638523275	-0.0000304651052132	0.0000223476872345	0.0000321332798855
Mg	0.5975907314136588	26.4193312185203872	-10.8784553621825513	-0.0000275904768645	0.0000545630369817	-0.0000078432699680
Mg	3.5290092024241111	21.4194849599465975	-11.1126455750555291	0.0000210511909440	0.0000597591331568	-0.0000144548015771
Mg	1.9648230039608656	18.8508507090761341	-11.0166621170436194	0.0000446018673346	-0.0001903702451629	-0.0000057484006248
Mg	2.9908639735563320	12.9599666178077850	-11.0700593661658555	0.0000480514953485	-0.0000366278342172	-0.0000020634553273
Mg	-0.7216533977278682	32.2597841140874024	-10.4534234166580919	0.0000430788464825	0.0000805245960867	0.0000299002709755
Mg	2.4696998114069086	15.9686141242346906	-11.0473349737213997	-0.0000215115907204	0.0000591558794144	0.0000008557069546
Mg	-0.4566987405782634	24.0598753645601455	-9.1048314127515884	-0.0000550324535758	0.0000028764078068	0.0000270058295067
Mg	-0.0736251970075434	29.2802570765512549	-10.6388566029817859	0.0000296649502041	-0.0000984072540808	-0.0000636963469301
11
REF_energy=-244.7374224504285110 charge=2 Properties=species:S:1:pos:R:3:REF_forces:R:3
Mg	-1.8076400707565008	19.6433207986806551	-12.3564787538015306	-0.0000510446349308	0.0000338102719572	-0.0000750639224981
Mg	2.5607807911205480	21.7409143907807767	-12.9505391363488709	-0.0000286415337726	-0.0000731495671194	-0.0000064542119061
Mg	0.5503718362557347	22.4949707023314858	-9.0813110793457064	0.0000795674503749	-0.0000268529043424	0.0000090139271099
Mg	-2.0441408681652300	21.6681064247118940	-10.2262559344022996	-0.0000837095601159	-0.0000689936590315	0.0000296441212084
Mg	-1.3222225250846866	24.5251963804403736	-10.6704824928489437	0.0000650379958926	0.0000194410086694	-0.0000434022443174
Mg	5.9859503470153221	21.3729454877593561	-8.6031191415304562	-0.0000821677848042	0.0001168748603505	0.0000124770751307
Mg	3.3467874268571092	21.6095154499991828	-10.0502217868497414	0.0000533193683900	-0.0000454378505080	-0.0000459902193961
Mg	-0.8313276786793095	22.5602481176521508	-12.9012788333161534	0.0000527657574839	-0.0000437951959382	0.0000531829726806
Mg	0.3793776096422549	20.1905525750121413	-14.1987029820259636	-0.0000447974202570	-0.0000138942309094	0.0000110234974385
Mg	1.5902678840839963	24.0022397548516686	-11.3915453018140109	0.0000316142916089	0.0000420069014340	0.0000936572607892
Mg	0.8525881659523218	20.1373752332193590	-11.0751907985172799	0.0000080560701304	0.0000599903654377	-0.0000380882562397
11
REF_energy=-258.0610977412126772 charge=0 Properties=species:S:1:pos:R:3:REF_forces:R:3
Mg	2.3157771367641695	23.1425964934902915	-13.1556636633342592	0.0000034485103471	0.0000143503940213	0.0000306050487664
Mg	0.9998997977701407	24.5059511139932198	-10.9109054502890785	0.0000068988328545	-0.0000330853099297	-0.0000398160395337
Mg	2.8442955462868897	20.4665909234127028	-8.8494036613448497	-0.0000400667860022	-0.0000188632683609	-0.0000153014901587
Mg	2.1565795900924072	20.5626551076973634	-11.7479614867119562	0.0000486400003818	0.0000433670949524	0.0000008936123905
Mg	-2.4844637536427423	20.5079199418487477	-14.2727823193189778	0.0000054146361521	-0.0000497495442293	0.0000495596151008
Mg	-1.3294666689787984	23.2982557329128959	-9.5895949370479912	0.0000062598659632	0.0000016166839284	0.0000078962608284
Mg	3.5007927387895088	22.8366646013003809	-10.4362770150542605	-0.0000097909008692	-0.0000183589338270	-0.0000144430186199
Mg	1.3484871018940567	22.9282292031899857	-8.3316988120776756	-0.0000276868405626	-0.0000162906818585	0.0000199089263976
Mg	-0.4628629283893459	19.3823280787635568	-12.1826314713274524	-0.0000482187584345	-0.0000412757665357	-0.0000639914695178
Mg	-0.4013883810475835	22.2687485966624266	-12.2454091661001954	0.0000171386737686	0.0000861619405420	-0.0000271021312567
Mg	-0.0326703574990467	20.6557414353666893	-9.6063530095197063	0.0000379627664013	0.0000321273912970	0.0000517906856030
11
REF_energy=-258.0610977412126772 charge=0 Properties=species:S:1:pos:R:3:REF_forces:R:3
Mg	2.3157771367641695	23.1425964934902915	-13.1556636633342592	0.0000034485103471	0.0000143503940213	0.0000306050487664
Mg	0.9998997977701407	24.5059511139932198	-10.9109054502890785	0.0000068988328545	-0.0000330853099297	-0.0000398160395337
Mg	2.8442955462868897	20.4665909234127028	-8.8494036613448497	-0.0000400667860022	-0.0000188632683609	-0.0000153014901587
Mg	2.1565795900924072	20.5626551076973634	-11.7479614867119562	0.0000486400003818	0.0000433670949524	0.0000008936123905
Mg	-2.4844637536427423	20.5079199418487477	-14.2727823193189778	0.0000054146361521	-0.0000497495442293	0.0000495596151008
Mg	-1.3294666689787984	23.2982557329128959	-9.5895949370479912	0.0000062598659632	0.0000016166839284	0.0000078962608284
Mg	3.5007927387895088	22.8366646013003809	-10.4362770150542605	-0.0000097909008692	-0.0000183589338270	-0.0000144430186199
Mg	1.3484871018940567	22.9282292031899857	-8.3316988120776756	-0.0000276868405626	-0.0000162906818585	0.0000199089263976
Mg	-0.4628629283893459	19.3823280787635568	-12.1826314713274524	-0.0000482187584345	-0.0000412757665357	-0.0000639914695178
Mg	-0.4013883810475835	22.2687485966624266	-12.2454091661001954	0.0000171386737686	0.0000861619405420	-0.0000271021312567
Mg	-0.0326703574990467	20.6557414353666893	-9.6063530095197063	0.0000379627664013	0.0000321273912970	0.0000517906856030
11
REF_energy=-243.3601003058896595 charge=2 Properties=species:S:1:pos:R:3:REF_forces:R:3
Mg	-26.7541499112684704	40.7839610944996664	24.8385765877951918	0.0000916235898770	-0.0000374550415727	0.0000745089823053
Mg	-24.3625528944077665	39.6828081987793837	26.2171107776751455	-0.0000769407629904	0.0000454773222604	0.0000423070416943
Mg	-24.1741141131645598	40.9012890924856478	23.4653908006289917	0.0001020030418087	0.0000576866164361	-0.0000222281825711
Mg	-22.8275473092223642	38.3337440357916392	24.0495237635394190	0.0000628372956524	-0.0000537194741393	-0.0000257457028518
Mg	-20.3237579959624419	36.9228638905217963	23.1585030689478977	-0.0000639446018712	0.0000074970856427	0.0000303276515881
Mg	-28.1456915410600317	43.3085871316648010	25.3126316961618230	-0.0000517510120680	0.0000190034517795	0.0000265091262241
Mg	-29.0472514885691915	34.1359192221773000	20.7715767286108495	-0.0000306237844244	0.0000049756888800	-0.0000568144901660
Mg	-28.8150884929021096	39.2557560954254186	23.4075134454733949	-0.0000537114110328	-0.0001262582931286	-0.0000956795398548
Mg	-27.9627116632869068	36.5614503502547734	22.2687379585609015	0.0000221832293385	0.0000898221116779	0.0000590665908709
Mg	-23.3355087526000560	39.7356848266116884	29.1154558556431944	0.0000639072033100	0.0000607927286104	-0.0000159518439661
Mg	-25.7792943855682424	38.2466436896238875	23.5940242365373294	-0.0000655827875999	-0.0000678221964464	-0.0000162996332730
11
REF_energy=-258.0894416747067339 charge=0 Properties=species:S:1:pos:R:3:REF_forces:R:3
Mg	-2.5751825508567756	22.4764296829401218	-13.0831207302916379	0.0000012688960571	-0.0000163041977747	-0.0000969434222606
Mg	-0.3598996066089120	20.3243751732360955	-11.7080694088065957	-0.0000029400779515	-0.0000129662898669	0.0000020186645596
Mg	4.2839599196899822	21.1512981874635990	-9.8226544927412345	-0.0000355064298978	0.0000116131496728	-0.0000269953898654
Mg	-0.8262046786777405	21.0234410722455998	-8.8702897173510671	-0.0000132189433363	-0.0000149171833543	0.0000400067058919
Mg	0.6904370776964692	22.3558810404647232	-13.5251347265846409	-0.0000248606288904	0.0000082064495656	0.0000562885630049
Mg	-0.3850578455177056	23.1710814385349586	-10.8782640255236682	0.0000637544643404	0.0000588760646019	0.0000147264959813
Mg	1.4326042491488269	25.1826753390344145	-9.8552861457478471	-0.0000321846149498	-0.0000149183577065	0.0000310279775234
Mg	1.7571187795633407	22.4857704484758933	-8.7360817522888041	0.0000480620470014	0.0000230245567046	-0.0000005588375724
Mg	2.6232711938634323	20.4091963072238727	-12.3261762020716859	-0.0000037804152004	0.0000777494293457	-0.0000047676813296
Mg	2.7450793149678021	23.1984889131857308	-11.5301674319354142	-0.0000088070243084	-0.0000943177131119	-0.0000439851720711
Mg	1.7025162125366384	19.6562137669237451	-9.5820137565808263	0.0000082127271358	-0.0000260459080762	0.0000291820961379
11
REF_energy=-243.4406821902743729 charge=2 Properties=species:S:1:pos:R:3:REF_forces:R:3
Mg	4.1588894882759453	10.7137371947495037	-14.1161248097986416	0.0001006715752478	-0.0000538356599140	0.0000543225230506
Mg	6.1521490989360368	8.2661335328768324	-9.1090078874301454	0.0000443737243378	-0.0000058526982813	-0.0001376420369788
Mg	6.4427317895766203	6.1506609489186568	-11.5572097295451570	-0.0001619405187300	0.0001172459392634	-0.0000218523317541
Mg	5.8113582133423369	6.3930753929636639	-6.4765407474975687	0.0000658601339095	-0.0000750042788810	-0.0000164619075868
Mg	8.5184098904402230	7.4241010666407785	-7.0473302662642290	-0.0000113680210117	-0.0000038529716368	-0.0000203900813452
Mg	6.3696713803932017	9.2931625450247335	-6.2264532730033215	0.0001015044682992	0.0001396627318812	0.0001309770205232
Mg	1.9480428259926474	13.9871480497566729	-18.7009194254587747	-0.0000194046957589	-0.0001094490965364	-0.0000007972809914
Mg	5.9524047606102153	11.5114062785425144	-4.2291462109513152	-0.0000672235802346	-0.0001321954015724	0.0000152687624296
Mg	3.0573005349280691	12.3642206987073333	-16.3538034150168095	0.0000435183093175	-0.0000254665666506	-0.0000410910115355
Mg	7.2792314021717059	5.4227416180266914	-8.9050439266213335	-0.0000792236986635	0.0000094530003940	-0.0000273877793911
Mg	5.2845612917820315	8.8933205060234446	-12.0803634858643036	-0.0000167676967131	0.0001392950019339	0.0000650541235793
11
REF_energy=-244.3616245677505106 charge=2 Properties=species:S:1:pos:R:3:REF_forces:R:3
Mg	-0.9568716906854965	18.1547253949383602	-5.6888588750954305	0.0000745146023895	0.0000633336220755	0.0000128299849207
Mg	-1.3464224678619936	19.3158474989613822	-3.0181499922825816	0.0000386937266130	-0.0000113976662719	-0.0000102623405472
Mg	-2.9823569538817738	20.3683539144115500	-5.2211599236024844	-0.0000177114045189	-0.0000677383631831	0.0000199696523677
Mg	1.4913601838015900	23.5475962936279615	-10.6324416327604254	0.0000456655116078	-0.0000214989529632	0.0000060702259244
Mg	-0.5897965680804259	22.0367392071615775	-12.5708061919630047	-0.0000125758978633	0.0000243841187499	0.0000281632222276
Mg	0.6993943542357897	20.6797873592410895	-10.0558456201514712	-0.0000521443301878	-0.0000028179289893	-0.0000249308137861
Mg	-1.2600911436961379	22.8017402321492426	-9.6050862961089756	-0.0000210687790324	0.0000371442486708	-0.0000173405257531
Mg	1.1218617061208116	22.5625538370882772	-7.6036745722006263	-0.0000058311135134	-0.0000139996900238	0.0000032750609858
Mg	-1.1219848551092420	20.4949978316719594	-7.6251640738028073	-0.0000576856149255	0.0000067071672532	0.0000110075082627
Mg	1.3803830343083565	24.0729716460648611	-13.5774673133721553	0.0000559919178798	-0.0000238355788788	-0.0000118255855364
Mg	0.0851436478364316	21.0394280404560767	-4.9606794121316815	-0.0000478486184488	0.0000097190235606	-0.0000169563890661
11
REF_energy=-243.7037982794373363 charge=2 Properties=species:S:1:pos:R:3:REF_forces:R:3
Mg	-7.7158595485953985	11.8684097249746330	18.7074573003216038	0.0000297634230195	-0.0000856254562945	-0.0000800161632313
Mg	-18.7038981850700203	9.9839781277449813	14.0554190954656804	0.0001121959078267	-0.0000196975036318	-0.0001916693024692
Mg	-12.8786209655769390	9.5072556111023072	19.0672075285678773	0.0000010141915409	0.0001286027981381	0.0001121878333469
Mg	-12.9362383651401522	11.2649100189907863	16.6265785471737253	-0.0000548062967953	-0.0000531131465836	-0.0000337579759783
Mg	-13.2746760216326329	12.4010543964256712	19.4692558488101106	-0.0000316403251964	0.0001355466276848	0.0000582218092746
Mg	-17.5690603940622267	11.4910996978092061	20.1728925735706888	0.0000522463420195	0.0000194116191196	0.0000805789385255
Mg	-15.7905069280133752	10.5975975866523964	15.0822118060255956	-0.0000054402694853	0.0000751231081388	0.0000690127595270
Mg	-10.6544198712466827	11.3938713545534824	18.5214893544110701	-0.0000055422293823	-0.0000911890946878	0.0000043671700021
Mg	-15.4658443223950783	10.8108961843494846	18.1446351184899513	-0.0000705439084761	-0.0000197461566817	-0.0001289602109055
Mg	-20.4389319479698202	11.0912644957804982	19.0890810409129230	-0.0000167359387276	-0.0001169039525964	0.0000630185695010
Mg	-18.2814295538578406	10.3992610916404136	17.0614528629286362	-0.0000105108963436	0.0000275911573946	0.0000470165724072
11
REF_energy=-243.5372991096515420 charge=2 Properties=species:S:1:pos:R:3:REF_forces:R:3
Mg	-12.8466009009476174	16.5494612443246609	8.8949440386839438	0.0000399629487907	0.0000799110985834	0.0000710834597255
Mg	-13.6952036370879267	8.8761914667638120	10.1343679476288671	-0.0001303290247269	-0.0001914747022668	0.0000094655378461
Mg	-13.5032270006464135	19.1641233413230552	7.7814492371651784	0.0000026705213104	0.0000705658571198	-0.0000114230562733
Mg	-13.3296851964871408	14.3318205192658255	10.9453503494184901	0.0000403688324052	0.0000192455136635	0.0001122158973108
Mg	-13.6395261060258211	11.6982451012159760	9.4873583828465975	-0.0000358632323725	0.0000836616017569	-0.0000106468606279
Mg	-11.6087180202297109	13.7662263182389708	8.6174714662821223	0.0000625338725572	0.0000762421657053	-0.0000413018578219
Mg	-15.4504027731286477	16.8895087659079728	6.8986518443197404	0.0000384933391068	-0.0000181489171031	-0.0000687238763953
Mg	-13.6105043730544928	22.0717254830487271	7.0025120075197513	-0.0000445377839040	-0.0001411364493926	-0.0000577424950709
Mg	-14.5985659891515844	14.1574462250166082	8.1816635288138020	-0.0000103039179466	0.0000350453659653	0.0000769589600468
Mg	-15.3992330525747967	6.4384404279739682	9.5912551600259537	0.0000224613215182	-0.0000372634721861	-0.0000051790287026
Mg	-12.1314508846881601	6.8035862177086344	11.6792140466186449	0.0000145431232615	0.0000233519381543	-0.0000747066800373
11
REF_energy=-259.6219265997190178 charge=-1 Properties=species:S:1:pos:R:3:REF_forces:R:3
Mg	3.2676816090098977	-2.1465450853579413	-3.6340999670325171	0.0000150612067633	-0.0001808348622544	0.0001702231738957
Mg	5.7390744255744925	0.3087463071883728	1.6228680246884351	-0.0001186635313139	0.0001264922023727	-0.0000336949411914
Mg	0.6623423359338780	-0.6246769979056590	-0.1033541686292397	0.0001338312161360	-0.0000942732775895	0.0000681906333662
Mg	3.2326764330512332	-1.9166020450826848	0.3831333284012417	-0.0002635067145374	0.0003027210257556	0.0001531675397463
Mg	5.3098085741716234	-1.0411801683793955	-1.5276521468686910	-0.0000677905238825	0.0000103928334949	-0.0000419468339204
Mg	1.0214587129379400	-0.3481919250192946	-3.0545741683410488	-0.0000623266011740	0.0000014972206617	-0.0000380933128385
Mg	4.1533135540596975	-3.8644032030483526	-1.4830546222275001	0.0000191422116562	-0.0000786626230713	-0.0002469640503112
Mg	3.8994041100943839	0.6774898544661527	-3.6276563042785464	0.0000479188334158	0.0000680339686042	0.0000958479216192
Mg	2.7383795754893168	0.5307230295908372	2.0697260954004166	0.0000919768012367	-0.0001540867112255	-0.0000444315064550
Mg	1.1731540097735009	-3.0345221495284420	-1.7781070897871476	0.0000400871053919	0.0000843201011883	-0.0000446339408298
Mg	3.0701909294598742	0.7928462183272149	-0.9059726830981971	0.0001642699963081	-0.0000855998779367	-0.0000376646830811
11
REF_energy=-243.1029827699218799 charge=2 Properties=species:S:1:pos:R:3:REF_forces:R:3
Mg	-12.9940902614272691	12.2847890855835562	17.6147322174072585	0.0000157091411296	0.0002550083550969	0.0000693995252568
Mg	-14.2432296688559443	10.0826403209587347	19.3442634655114638	0.0000187893412815	0.0000031668932038	-0.0001260011462041
Mg	-20.8237319098521994	8.3224453433095640	23.8999634867563557	-0.0000319486565577	0.0001896660445615	0.0000334551105021
Mg	-15.1783476660101577	10.3470477777414445	16.5034017941785720	0.0000366208504063	-0.0001400971684678	0.0000253090862852
Mg	-12.2337064908301247	6.5739327763379993	26.5000279605941103	-0.0000896369099171	-0.0000357558221490	-0.0001731077146926
Mg	-12.8564051228152252	11.1577100701253080	14.8455392064422540	0.0000324719847908	-0.0000041035058068	0.0000095237456635
Mg	-11.8950660560215145	15.1726661695954927	17.8399585731343890	-0.0003026268038238	0.0000255007615177	-0.0000274463594569
Mg	-13.7568483475592984	7.8403188696260129	24.1307936116516224	0.0001757850318589	-0.0002070285760407	0.0000476978160867
Mg	-17.9364455401689824	8.6915003090861820	22.8680590488659377	-0.0000225666134763	0.0000806653245828	0.0000712147766601
Mg	-15.1906282281068368	9.0333619426539364	21.8469546071392102	-0.0000638653880694	0.0000230929557908	-0.0000514273400947
Mg	-12.4493291773363666	9.2544199909775227	17.0845156943671839	0.0002312680223772	-0.0001901152622891	0.0001213824999938
11
REF_energy=-244.3835127392815991 charge=2 Properties=species:S:1:pos:R:3:REF_forces:R:3
Mg	-23.7458656169154345	41.9705315894153799	22.7822568351541186	-0.0000248103911940	0.0000399121036954	-0.0000246830785024
Mg	-22.6088488534361680	42.3059635813000625	19.8875678734846595	-0.0000659274154569	0.0000343264125825	0.0000287099914254
Mg	-20.7493496579532390	43.2990743700484231	22.2017312415564732	0.0000397796793997	-0.0000170605461402	-0.0000235321370251
Mg	-19.0976622666185989	42.1761017655273847	19.8636445091912961	0.0000290191282752	-0.0000273967330065	0.0000553405996910
Mg	-21.3191457282989987	40.4093100441343225	21.9333271540614412	0.0000788774926736	-0.0000032980900530	0.0000372113254992
Mg	-18.2626556572218561	41.6155452479135377	22.8248379206341134	-0.0000100290236217	-0.0000453318405619	-0.0000569414500760
Mg	-18.7867276312077287	39.2950192451228375	20.8884976411195424	-0.0000023761375670	0.0001057760052689	0.0000853733917785
Mg	-21.2574494590273346	39.5425921563041385	18.9848578103395695	0.0000428725271342	-0.0000964880694975	-0.0000506877220686
Mg	-19.5083128783834674	37.0209492362482564	19.1792913863065309	-0.0000273700478455	0.0000084732830766	-0.0000736958140081
Mg	-21.5445136474154779	37.4752037672577032	21.3142950843875170	-0.0000199273340046	0.0000056712569450	0.0000207868747492
Mg	-23.2719897369446294	44.7071833619619881	21.6867601859766346	-0.0000401084777929	-0.0000045837823094	0.0000021180185369
11
REF_energy=-243.7598152130296967 charge=2 Properties=species:S:1:pos:R:3:REF_forces:R:3
Mg	-1.1608531937578153	24.1960720399057330	-7.7788044389527862	-0.0000681080697054	0.0000098247130056	0.0000873743604377
Mg	1.3353153994412643	24.5795846816010553	-3.7608472605291885	0.0000654888870020	-0.0000120705843818	0.0000089791454286
Mg	1.4925182263926977	22.8221728124733829	-6.1782922154075361	0.0000273736366993	-0.0000749397819889	-0.0000475852615335
Mg	0.4703620862446135	21.9345091593540538	-8.9008174953542554	-0.0000543899354426	-0.0001329615290141	0.0001199686441299
Mg	2.9564774276441712	20.5374435967904923	-7.5832121855386996	0.0000154600275277	0.0001693379132397	-0.0000348913666521
Mg	-3.6856226588318788	23.7543711294924584	-11.9515913166372147	0.0000993868130990	0.0000072445601093	-0.0000982965677104
Mg	1.8044586950228416	19.6513007684431606	-10.4893499262431611	0.0000026723335712	0.0000416481723713	0.0000034583623563
Mg	-0.5832437134392460	21.0725014561720734	-11.6603947348350818	-0.0000627471228386	-0.0000108247365400	0.0000035701722973
Mg	-1.0194364612367357	25.7655001162357564	-5.2253420144511606	0.0000010281081144	-0.0000033978216504	-0.0000220303517910
Mg	-0.7567548608043290	23.9959661233391621	-10.8069362613446316	-0.0000021254155248	-0.0000537791922019	0.0000058815222932
Mg	-2.5223092536259593	22.0917927628491988	-9.5373344456542331	-0.0000240392625021	0.0000599182870512	-0.0000264286592561
11
REF_energy=-244.7212309803337291 charge=2 Properties=species:S:1:pos:R:3:REF_forces:R:3
Mg	1.3328775612583748	22.6618651056373501	-13.3865704937057277	0.0001476010595455	0.0000583363561694	0.0001229366264921
Mg	-0.8931634650291018	22.7276286700009251	-11.2624292409161821	-0.0001112698938590	-0.0000342975817569	-0.0000043342855564
Mg	2.5130054012453864	19.7185987009888812	-10.5794351193539651	0.0000270695764400	0.0000078509064362	-0.0000121466915034
Mg	3.9092902612738696	21.3070837420132442	-12.6268752313220087	-0.0001204238883706	0.0000727346105965	0.0000979669382751
Mg	-1.2980778562148043	21.2889871994886875	-13.8793797872890909	-0.0000749585227394	-0.0000115632355706	-0.0000832832505772
Mg	-0.2743281753657903	26.0387440761646012	-6.7636106569491394	0.0000699136405696	-0.0000241174286840	-0.0000821409047110
Mg	2.3489920046540176	22.7387167592956487	-10.4823371829293617	0.0001819620534988	-0.0000116063182751	-0.0001769865396913
Mg	0.1940454321659496	23.8060101213737951	-8.6690095686430872	-0.0000779390274487	0.0001420715341480	0.0001140033460586
Mg	0.2638636794786804	20.8789017021825423	-8.9153582196574650	-0.0000412319299983	-0.0001328784323632	0.0000140399939049
Mg	1.3334885539988426	19.6823861848364032	-13.3453022476926222	0.0000120481886053	-0.0000211700667750	-0.0000222273158528
Mg	-0.9750135754258431	19.7067589666552720	-11.4183732436679808	-0.0000127712562432	-0.0000453603439253	0.0000321720831614
11
REF_energy=-244.1100482030084891 charge=2 Properties=species:S:1:pos:R:3:REF_forces:R:3
Mg	2.1142994264412360	25.6533714677608664	-11.8014382103393931	0.0000014365010444	-0.0000097394018256	0.0000234657048937
Mg	0.3701489764927847	23.2557683548886835	-11.1799599994844296	-0.0000156155608579	-0.0000288533972265	0.0000069853515827
Mg	3.9045679138111073	19.6103386256640420	-11.3679711186556727	-0.0000261149986622	0.0000270506168215	0.0000148781087785
Mg	3.4430779599736479	22.7679477525764753	-11.7139078827805889	0.0000002653866403	-0.0000193307181456	-0.0000002226264892
Mg	1.4236622125105498	20.6299882032523065	-12.4166325936034028	0.0000024351371114	-0.0000198029968087	0.0000244892469470
Mg	6.5509696374967694	18.2488983135147045	-11.4486691651946906	0.0000189171158691	0.0000320847000202	-0.0000400089817641
Mg	-2.4120466519659844	22.8369557267839163	-10.3052737782292727	0.0000454025841293	-0.0000311367227783	-0.0000101797118732
Mg	-5.1506022450094209	23.8535778626828225	-9.7599061483541405	-0.0000221403211421	0.0000508727368580	-0.0000351696303022
Mg	-1.5619225986235818	21.6113104482531142	-12.9631222026444721	0.0000044340764602	-0.0000073895627900	0.0000205469573807
Mg	-0.7446419544113848	20.4462459516657589	-10.2794288764399511	-0.0000291195221908	0.0000103586292582	0.0000139131297715
Mg	2.2552455472849187	21.1531715156215228	-9.5159238967755648	0.0000200996015983	-0.0000041138833832	-0.0000186975489254
11
REF_energy=-243.6768238288491659 charge=2 Properties=species:S:1:pos:R:3:REF_forces:R:3
Mg	-0.1922054768739122	23.5441534933231971	-10.6071728834965828	0.0000383201050424	-0.0000014217393369	-0.0000586673764637
Mg	1.3601905385916082	22.6289753755191114	-8.1061454183450152	0.0000671959819791	-0.0000976887574631	-0.0001241236587053
Mg	0.1352625398562922	21.2579818209201044	-13.2287262075821577	-0.0000108952064258	-0.0000363085334625	-0.0000342837536442
Mg	-2.3040793326919751	26.5108579650190954	-6.3081796764814113	0.0000393290700732	0.0000098032333953	0.0000567178856349
Mg	0.9857044274462474	18.7396288543667069	-14.9104096348382473	0.0001765761189479	0.0000605780229074	0.0000849597624168
Mg	0.3460796474347320	28.1052000708844716	-7.3175794625681938	0.0000109556471178	0.0000772117626667	-0.0000135613197864
Mg	2.8760274596240647	19.9962877754017754	-13.0130168525178593	-0.0001231986776237	-0.0000404502668746	-0.0001375005249922
Mg	0.4165526396425441	18.4999130890088956	-12.0174087007511989	0.0000231654790586	-0.0000841583249838	-0.0000738374336179
Mg	-0.1275169091382356	25.1688816254553700	-7.9555320358200001	-0.0001322393186077	0.0000213627631617	0.0000868682661942
Mg	1.4322794533850274	20.9195275930498745	-10.5316482564718896	-0.0001054525337779	0.0000458210096250	0.0002058867771106
Mg	-1.7346493564832275	29.4231864873237896	-5.4547531070188295	0.0000162433342160	0.0000452508303647	0.0000075413758532
11