13
REF_energy=-721.1872445863156145 charge=0 Properties=species:S:1:pos:R:3:REF_forces:R:3
Al	2.4528164036003588	3.4959251669903790	2.4295883416913329	0.0000384012477026	0.0000072665301876	0.0000787580603878
Al	2.2090423042857061	0.9935848090114979	3.7026648415029144	0.0000299463158299	-0.0000171772305371	-0.0000566442987784
Al	-0.0747707036094724	2.3247407328236709	3.3434184382043166	0.0000489185986792	-0.0000227550006753	-0.0000701418354072
Al	4.5441930954121252	2.2225147206549525	3.4819905365862072	0.0000124279217797	-0.0000016971014841	0.0000514995108669
Al	-0.1185650835891460	-0.3251222287017601	3.5344619022115378	0.0000193759873534	0.0000563287336926	0.0000622927014732
Al	2.3734213173297762	4.0698685519600719	-0.3732121962909480	-0.0000460339422206	0.0000250409278392	0.0001116580539588
Al	4.3008491323705549	2.6500023536236861	0.7454474649153651	-0.0000452275777705	-0.0000300662460701	0.0000818724275197
Al	3.9096065288664499	0.2487968469415245	1.7318807016027362	-0.0000025646902947	0.0000084691631282	-0.0000421035614195
Al	0.3416159811098851	4.8596915274822932	2.9940850842123337	0.0000398749917308	0.0000196952008723	-0.0001109169327523
Al	1.9762266793005232	1.4828461398830619	0.2878127324652696	-0.0000723077023873	0.0000103197354964	-0.0000770763808763
Al	0.1028423894060571	3.4639004398120665	0.7110686552857605	-0.0000274089460899	-0.0000448160229702	-0.0000263381674072
Al	1.4918087654563648	-0.8282097369853668	1.4816136467330139	-0.0000001255306215	0.0000152300506902	-0.0000096098350031
Al	-0.4335485105044733	0.8328736074456770	1.0276281009169299	0.0000047233263089	-0.0000258387401697	0.0000067502574377
13
REF_energy=-702.8120985374048360 charge=2 Properties=species:S:1:pos:R:3:REF_forces:R:3
Al	7.0792585437784386	1.2161897617112292	-3.7326325981354200	-0.0001419077546036	0.0000542385905690	-0.0000152217312328
Al	8.6894972888205402	2.3799126455751280	0.2169728772559153	-0.0001585547926492	0.0001194055423565	0.0000159316970894
Al	9.5750607089374657	4.2286480618757922	1.8408735463494603	0.0003814825878009	-0.0001410799940501	-0.0001022378108106
Al	9.7945989201238106	3.9484715626208913	4.4087735288075276	0.0000114160746815	0.0000988370991158	0.0002109539965481
Al	5.2105983611348519	3.1189671045413507	-3.4813541228257474	-0.0001333773101531	-0.0000166311386476	-0.0000409946907671
Al	7.2294732981130005	3.9235791557753887	-4.8262573661349890	0.0000202564643083	-0.0001447332495022	-0.0000766735380914
Al	8.2541373106517710	-0.0217041462968381	1.4472928632242588	-0.0001427100628596	0.0001711067316689	0.0002273349385107
Al	8.8871330814715677	-0.4099909246405826	-2.9713663375876784	0.0001684613770405	0.0000263504229178	0.0000973388363031
Al	9.7185212730302659	-0.6041256828103991	-0.5335928615958514	0.0000767421818921	0.0001287314484392	-0.0001508384662998
Al	7.2407262838863060	0.5762044302463587	-1.0280068384116874	-0.0000610394156707	0.0000808271514534	-0.0000859343111007
Al	10.5503745186425242	5.1287654766096749	7.0230726190706125	-0.0001194530503772	-0.0000170729654121	0.0000679634985076
Al	8.7948803056754752	1.8990232928718278	2.9943638661112013	0.0001084008559321	-0.0002623911715797	-0.0001404825071680
Al	7.3118198235061875	3.1132646015080843	-1.8421852844317279	-0.0000097171553420	-0.0000975884673290	-0.0000071399114884
13
REF_energy=-717.4030627657712103 charge=0 Properties=species:S:1:pos:R:3:REF_forces:R:3
Al	-0.6630842645484527	0.0871543495715654	5.3445802080828120	-0.0000573216868209	0.0001646836842181	-0.0000610744333692
Al	1.0098069908667886	-0.5133892705643398	1.1526524484879761	0.0000671851059893	-0.0001228014487160	-0.0000536891285127
Al	1.5695739552858485	0.5166266278076519	6.3952006990877281	0.0001078362106908	0.0001320016560041	-0.0000864027124629
Al	4.1881697635786717	5.0856710249123136	-1.0449045642012009	-0.0001640030818184	0.0000197954396391	0.0001062377565679
Al	5.7881781669644692	3.6839340469912987	-2.4656292816094130	-0.0000702961169047	0.0001113438894959	0.0001480455730825
Al	1.5193914953617305	-0.3785932971384798	3.8024836034241951	0.0000008164792537	-0.0000805768798364	-0.0000159086452060
Al	2.0450127596382179	2.1857673895707368	4.5706986391236191	0.0000937461356815	0.0000097052927763	-0.0000071012679464
Al	3.7160466015969882	3.1072102228545209	0.5738249377892044	-0.0000111500931806	0.0000722757466388	0.0000499053687424
Al	3.3506348178675931	2.7084239597800863	-2.0370919077483514	0.0000676133603470	-0.0000416548956126	-0.0000399000279348
Al	2.1832133448212914	1.1606329573872187	-0.3796743615872252	0.0000042340245274	-0.0001175333140899	-0.0000097131845176
Al	0.8210638004102062	-2.7289672472959672	2.4161985063037235	-0.0000547972831016	-0.0000053118241420	-0.0000164424912423
Al	2.7084969833442867	1.4191801757457061	2.1912489902555241	0.0001215272277967	-0.0002327316179374	-0.0000687791465591
Al	-1.0524097114773487	-1.3068137180673491	3.2095237880174450	-0.0001053902824603	0.0000908042715620	0.0000548223393582
13
REF_energy=-704.8584388545175443 charge=2 Properties=species:S:1:pos:R:3:REF_forces:R:3
Al	-2.6210177544971938	2.8315241791402701	3.0849135991382521	-0.0000483280956094	-0.0000066017659732	-0.0000359159955599
Al	3.1961725681635160	3.6409071141823386	-0.0846138582140475	0.0000456365706328	-0.0001213735598830	0.0000412097248833
Al	-0.4574868538045763	1.0571723676736822	2.4598240654135552	-0.0001509909060711	0.0000131154837255	0.0001338915049722
Al	2.8914519129101972	3.0870576963706160	2.6261348015030563	0.0000765999664691	-0.0000361420727160	-0.0000537777481216
Al	1.0089594415059939	2.1929780470566205	0.6994762788950294	0.0001517818570974	0.0000156106164859	-0.0000272595878987
Al	1.4504096664447443	5.0681301726942714	1.1226870457838491	0.0001949330209823	0.0000064714657114	-0.0000727028743820
Al	0.1205137607588083	3.7208484246412157	2.8788157224076372	-0.0001206353975219	-0.0001280416495108	0.0000900988624692
Al	1.5191667432571132	2.0642056710409817	4.5331621114161722	-0.0002128225399629	0.0000966606567492	0.0000722915871812
Al	-3.0460553165492028	0.3829912651284682	3.8437665220766783	0.0000915396740525	-0.0000290232485330	0.0000487486528204
Al	-0.9800767591099209	1.9367145505088510	5.0001700298835567	0.0000371816873895	0.0000580843294304	-0.0001180115354108
Al	5.8590273133227759	-0.3275019743492303	-0.5652536042752864	0.0000130869454579	0.0000950043093507	-0.0001769305249402
Al	3.6997745352586988	1.2466495689428208	0.6057082758610582	-0.0001431028765136	0.0000935562626221	0.0001015424763480
Al	2.1042330138699912	0.3974436803792555	2.5011174550605118	0.0000651200935973	-0.0000573208274592	-0.0000031845423612
13
REF_energy=-704.8275910489311400 charge=2 Properties=species:S:1:pos:R:3:REF_forces:R:3
Al	-1.6811345364929842	2.2425077123902319	0.6150397925374077	-0.0001131296730338	0.0001651586830822	0.0000611525953409
Al	2.5341630979923533	3.3258170913411296	4.0195852128678551	-0.0000762385694687	-0.0001566310196297	0.0000844137599997
Al	2.8861118986567624	5.7252178977871040	5.3607150965124566	0.0001067256915909	-0.0000720296572765	-0.0000469345199163
Al	4.7416890279830968	7.7455955663266813	4.7413463162568137	-0.0001685847614793	0.0000285732583145	-0.0000295862311853
Al	4.8071784018634718	5.1712443621945852	3.5269318779621730	0.0000150852434676	-0.0000518775523565	0.0000090052548127
Al	1.7999109348650910	7.5213809382991554	3.6683784442984901	0.0001701850426259	0.0000337276600433	-0.0000200382912403
Al	4.6103260324626349	3.3981431357372713	5.6208409845408580	0.0000159205136751	0.0000292155380593	-0.0001322387667098
Al	0.4792723511485876	3.4334899170985977	2.2632794913822472	0.0000940518465902	-0.0001023052531998	0.0001074635526591
Al	4.0130701112454696	7.4637084577789254	2.3354609663027093	0.0000053354217925	0.0000256326493686	0.0000142654612089
Al	5.5113284038625023	5.8798514554412113	6.3396731501145487	0.0000203464060668	-0.0000646405906700	0.0000539163941770
Al	0.4671969678228183	5.2593764727482357	4.1177083181637446	-0.0000916639120905	-0.0000536376314140	-0.0002014044550826
Al	7.0979910183933423	4.3033863803627623	4.9301734320676891	0.0000243833815096	0.0001919291492533	0.0001002233279086
Al	2.5561567394198308	5.2795105688373800	2.2145806617557953	-0.0000024166312463	0.0000268847664252	-0.0000002380819726
13
REF_energy=-705.4193810720780675 charge=2 Properties=species:S:1:pos:R:3:REF_forces:R:3
Al	3.2408472089407381	9.4467984787221884	6.6256302601787951	0.0001558053887912	-0.0001151934758525	-0.0001548589598548
Al	6.3948200340093884	6.4044769378365816	4.8818269621592894	0.0000436195260794	0.0000021477163996	0.0000221323013870
Al	4.5198617385707296	4.5129517287613430	1.4753475169788601	0.0000575159669011	-0.0000143233120740	-0.0000106217723091
Al	4.3192222879704865	10.5885564307330213	4.5171099594940012	-0.0000196017173036	0.0000564294889106	0.0000079985401146
Al	6.1766223252184123	3.9549698438999945	3.7665047379420109	0.0001126464444251	0.0000401068408303	-0.0001582413264252
Al	4.1765164010245650	6.9676185707485327	6.4446913775766719	-0.0000310806294818	-0.0000456227067171	-0.0000904805595996
Al	5.9468994495089333	8.5685206176993418	3.2978218816244169	-0.0001584837065673	0.0001637550713207	0.0000917046174143
Al	3.3143763228452876	8.1323123003026030	4.1331627054368409	-0.0000693357564782	0.0000412171534471	0.0000251244175580
Al	6.6428076190071161	6.1341604437941681	2.2151546880313511	0.0000687042727628	0.0000281168507964	0.0000065434467818
Al	4.9011356578147858	2.0553921131387805	2.3968529418001538	-0.0002127443945556	-0.0000459791153661	0.0001940030806327
Al	3.9886352005721029	5.4622120291173752	4.0352068487236910	-0.0000197176039375	-0.0001035126881963	-0.0000044865681961
Al	4.1670589876520436	7.0302743426283092	1.8664428318996320	0.0000769818634868	0.0000018326496619	-0.0000215374379647
Al	5.9408125836888575	8.8482425805194591	5.9584340215491878	-0.0000043096541223	-0.0000089744731605	0.0000927202204611
13
REF_energy=-721.0514446576981982 charge=0 Properties=species:S:1:pos:R:3:REF_forces:R:3
Al	0.8877670292148383	2.4005534062564076	4.6430608169309293	-0.0000912246026985	-0.0000422600549277	-0.0000338833844446
Al	1.5770325625309018	-0.0685031693213214	4.2517206249232631	-0.0000365055205999	-0.0000654035324342	0.0000754214797672
Al	3.9908920773262051	1.4504033289406013	0.0206288966386060	0.0000065512858162	0.0001052914372097	-0.0000173914554144
Al	2.8200665850688602	1.7859473946180457	2.6160079111660632	0.0000964642110340	0.0000200733496186	0.0000719740273468
Al	2.7302164625013789	-0.6984446716545174	-0.6545218017193650	-0.0001198808601352	-0.0000306638239814	-0.0000628685827941
Al	-0.1533336288726110	1.0029643036830580	2.4722540628564125	-0.0000064497223168	-0.0000084839397395	-0.0000490773860673
Al	1.2585182555620327	1.4588206342180392	0.3090748719822280	0.0000294138862768	-0.0000056050619115	0.0000710488199664
Al	1.8646346907312354	-0.7833237296983528	1.7757832941543088	0.0000851257133519	-0.0000150428238788	-0.0000256009350727
Al	4.8399397811252278	3.3581174422653377	1.5590334853601731	-0.0000787107289023	-0.0000134239623255	0.0000973615015657
Al	0.6378968892950790	3.4800580124892044	2.1292303488461042	0.0000070494032305	0.0000249151558944	0.0000189795991576
Al	2.4879730257342714	3.7761131373886405	0.2933593790198712	0.0000228810684652	-0.0000587959413643	0.0000211619615228
Al	0.9886429886747202	4.9727389260693213	4.4521963642104456	0.0000783046751515	0.0000027486840557	-0.0000157988441024
Al	3.0137421783480369	4.6333507394956959	2.8879926815333663	0.0000069811913267	0.0000866505137845	-0.0001513268014310
13
REF_energy=-705.4356761282012940 charge=2 Properties=species:S:1:pos:R:3:REF_forces:R:3
Al	2.2255980924941587	3.2437763049409800	4.2082117435973796	-0.0000382626264441	-0.0000063165273455	0.0000785571978792
Al	4.1692295915743012	1.9768900481573419	-0.3437507291538658	-0.0001096264129154	0.0000180088393769	-0.0000059851028625
Al	1.8326790764783003	5.9440668991175354	4.3028553105145502	-0.0000115800486056	-0.0000323883716768	0.0000883500536594
Al	1.1889709280972676	1.3577486298051964	-0.3972865183473426	-0.0000184918380353	0.0001558494045849	-0.0000521369061523
Al	4.2951259131946280	5.0002510855166937	4.0886525779783183	0.0000745233708918	-0.0000997037391374	0.0000332723602685
Al	3.8378146581904038	0.2940636462026600	1.5611538976612225	0.0000749345190836	0.0001894298078001	-0.0001285000195179
Al	2.8724352627148431	1.0239384362974955	-2.4446495131828980	0.0000987333891965	-0.0003382815627620	0.0000636423487099
Al	2.9944166950870197	5.5688683231886635	1.8148510149859873	-0.0000122219188081	0.0000766376957802	0.0000213077471701
Al	4.0062379498222311	3.0801266640700220	2.2023742808300533	0.0000255659473043	-0.0000443283504576	-0.0000174747748697
Al	2.1297135354192678	3.7185821239022614	0.2089039453980809	-0.0000249560720996	0.0000027512964974	-0.0000906700270310
Al	0.6150177299412236	4.4251942631836823	2.4454420030241804	-0.0000569404343075	0.0000204649978581	0.0000243968319739
Al	1.5318677001415553	1.7603340972568644	2.1743449786475777	-0.0000200745452120	0.0000085543315797	-0.0000396980320396
Al	1.5876523794598016	-0.8578659884401304	0.8876838335346281	0.0000183966699515	0.0000493221779020	0.0000249383228121
13
REF_energy=-713.9776788956137352 charge=1 Properties=species:S:1:pos:R:3:REF_forces:R:3
Al	2.0782336871584901	6.2628057146327629	0.3069056488247573	0.0001134908877043	0.0000565276315864	0.0000943786599988
Al	1.1076241405140423	3.2604451980833753	4.8843104403338211	-0.0000337568265169	-0.0000049651454059	0.0000411027926738
Al	-0.9876697383580546	3.7625213803787969	3.2374749643726646	-0.0000102252610381	-0.0000684514591108	-0.0000005717961557
Al	-0.1205415119410851	5.6290731667053535	5.2681422930796931	-0.0000123110122597	0.0000321754477348	-0.0000454618339634
Al	1.6538703068747755	5.2732419733149563	3.0401288935618744	0.0000812633045625	0.0000121835755363	-0.0000136971489335
Al	0.9316255811931080	2.5755332819058787	2.1321347257252978	0.0000746930090754	-0.0000008242716229	-0.0000328146109291
Al	5.1750438756567201	3.3067232866423315	1.5428888640140734	0.0000990835116998	0.0001001217574124	0.0002026450033689
Al	7.6153223340224088	2.3770331791874399	0.4171452426817048	-0.0001723387826329	-0.0001471831741317	-0.0002718523120614
Al	4.0326120183251595	5.6465113474143154	1.9394772981710302	-0.0000870416850025	0.0000681222562692	0.0000828191819366
Al	3.3686588174365459	3.3369165470103410	3.4590252002199917	0.0000002733581391	0.0000587269388560	0.0000079183986096
Al	-0.7453559204473502	6.3488649805818893	2.8419455188357938	-0.0000798395456723	-0.0000411939912685	-0.0001095071307631
Al	2.6193848602367851	3.6197019661955130	0.6214254915500239	0.0000602899171308	-0.0000005783237616	0.0000993819872868
Al	0.0381844573950493	4.7929640668442168	0.8492647460643985	-0.0000335808751894	-0.0000646612420937	-0.0000543411910682
13
REF_energy=-705.2478697154039082 charge=2 Properties=species:S:1:pos:R:3:REF_forces:R:3
Al	4.1852558790306951	4.9359505436601809	6.2402958089257252	-0.0000187701063745	-0.0000073120442230	-0.0000287616649672
Al	4.3259352866441807	5.0072709399865500	3.4362571588486230	-0.0002245563876162	0.0000046678279363	0.0001048358553055
Al	4.9335708967911147	7.4142724591974014	2.4652884321335797	0.0000221861456863	0.0000509634927327	0.0001071774985154
Al	1.2108647986474133	3.7702615735641163	6.0085704513338678	0.0001793163822710	-0.0001085416570637	-0.0000127009954165
Al	3.3465553107227364	8.0486215154498542	0.5020837354680300	0.0002319012381078	-0.0000545405375253	-0.0001669552979607
Al	4.1344703765743969	5.5013568108113438	0.5328184402141163	-0.0001037092505594	-0.0000672901248862	-0.0001553424832820
Al	2.1764347801905308	6.0263376458628155	4.8733098089735414	-0.0000789612293938	0.0000629889264185	0.0000243883080624
Al	3.1982318044621838	2.8735646800460173	4.4334339427739771	0.0000051659563120	-0.0001184112164757	-0.0000226285809356
Al	1.0869861529158436	4.1329520567417886	3.3457379248212393	0.0001717094874506	0.0001776081216511	-0.0000650668220534
Al	2.9382524434210073	3.4964335024124438	1.6437018417561897	-0.0001099209565489	-0.0000522683831266	-0.0001324944683612
Al	5.3455562027300223	6.9731545007255313	5.0631102179682133	-0.0002096889812433	0.0001140432256143	-0.0000180500672559
Al	2.1575667773923173	6.3119054507748054	2.2450027952242406	0.0000762189630418	0.0000241356350899	0.0002018633638590
Al	2.6002860104036114	4.0270350143317994	8.2074805782751863	0.0000591087388669	-0.0000260432661421	0.0001637353544900
13
REF_energy=-714.4840086300926032 charge=1 Properties=species:S:1:pos:R:3:REF_forces:R:3
Al	5.2161488738649888	4.3805096728650517	4.2814177346242595	0.0002003716117455	-0.0000731637814767	-0.0001537393276579
Al	5.8955882639098203	4.3228544577324488	1.7284340167440810	0.0000271349487470	-0.0000970207661837	0.0000394988886481
Al	6.1763934240335665	6.7070999034734182	3.5256708800190069	-0.0000112315436932	0.0000001076774075	0.0002126349832335
Al	7.9583816049118745	4.3440906904171337	3.8369243822118198	-0.0000060092217662	-0.0000163318236825	-0.0000706027332381
Al	4.2123658581865389	4.1801587661060520	-0.2919879507751628	-0.0001003829791396	0.0000174183432552	0.0000419050953933
Al	2.0648707202773227	5.5286064005230964	0.4014460452386236	0.0000686112679976	0.0001444227313126	0.0000704465227735
Al	4.3944457219218620	8.6346427486176047	3.5334079455434377	-0.0000117896109525	0.0000147524379242	0.0000177321071572
Al	2.0971906639536328	7.7916841706872226	2.4102781555493746	0.0000405083924164	-0.0000545237176684	-0.0001579232469629
Al	4.2419418637804220	6.4419839740381617	1.7136220225015151	0.0000098001250278	0.0000416133717136	0.0000000086178156
Al	2.3373169457451248	8.6354741464728910	5.3561075723455973	-0.0002136864462615	0.0000081727639497	-0.0000971178651475
Al	3.1765979919890523	6.0629848220990503	4.3059895502030683	0.0000713978361533	0.0000704461870510	-0.0000967555054831
Al	0.9881712503739420	5.4936729394972224	2.7889790154746810	0.0000628021625220	-0.0000113941646799	0.0001674537519439
Al	3.2290443307509098	4.0668076648730356	2.4877256324375887	-0.0001375265427966	-0.0000444992589226	0.0000264587115244
13
REF_energy=-704.8763079869556805 charge=2 Properties=species:S:1:pos:R:3:REF_forces:R:3
Al	9.3307091610028312	-0.6629159142012012	1.0847653172262144	0.0000214365215977	-0.0000401282279861	0.0000584024563878
Al	9.3743550687771737	0.8462437823616300	3.4680356998693922	-0.0001167708569126	0.0001153398064712	-0.0000084212310833
Al	5.8584835146665659	1.8074295448779103	1.2559433251413399	-0.0000387243886543	-0.0000243634390732	-0.0001001906814029
Al	4.3101403916503909	-0.0495517196150678	2.4628643229530471	-0.0000340520728008	-0.0000656820563622	-0.0001108994277144
Al	11.2184886798214745	1.8335141561518655	1.1531785623624105	-0.0000026785550322	-0.0001024256190117	-0.0001830839748556
Al	5.0124120038324635	1.8045640972501367	4.0887846180516609	-0.0001045128752476	0.0001233083303830	-0.0000806047184223
Al	7.3281225619930268	0.0449487494367144	-0.3315296128327253	-0.0000154966714870	-0.0000684228337110	0.0000161102931435
Al	7.0864604204327462	-0.1761167009933081	2.4891607954373236	0.0000871971529043	-0.0000055547145709	0.0000243663843596
Al	7.3996907782220092	2.4659272244191377	3.4864243412777465	0.0000837341639101	0.0000479417244748	-0.0000939424952421
Al	8.5916955411845812	2.0514121564410281	1.0515530302410840	0.0000541684781481	-0.0000059727559583	-0.0000628067862424
Al	11.4804122557536008	-0.3323055057468161	2.5057102110804421	0.0000329113837659	-0.0000338456745985	0.0000284534848824
Al	4.9364319933392657	-0.7389023598844748	0.0729145364406184	0.0000312996143807	-0.0001783844515870	0.0000879080676324
Al	6.9487009107573670	4.0161333924432832	-0.2411911540667195	0.0000014881054277	0.0002381899115299	0.0004247086285572
13
REF_energy=-705.8312285726908613 charge=2 Properties=species:S:1:pos:R:3:REF_forces:R:3
Al	-0.6768959407901223	3.8978740787093740	5.1389693363504740	0.0000372945325615	-0.0000746547191215	-0.0002156534945002
Al	3.4078889146689413	5.3288679898662581	0.4073629785994933	-0.0000495608268982	-0.0000119243046059	-0.0000599236418257
Al	0.0335653442483298	2.3142499326621615	2.9431016051426502	-0.0000717230638090	-0.0001394655508880	0.0000746244702454
Al	-0.0349644241337552	5.2537267813130848	3.0738122855526258	0.0000167895517822	0.0001672614107120	0.0000931541769567
Al	1.7883025295048902	3.4652000324218202	1.5331173045485837	-0.0000453668843982	0.0000389392501882	-0.0000540524583340
Al	0.8749356476127071	5.8853368562191353	0.7092548032627806	0.0000492050511822	0.0000528015525214	-0.0000012523756946
Al	2.6234405439925452	6.2199216561064059	2.9406228515528769	0.0000444674192810	-0.0000627109388516	-0.0000285421987719
Al	2.7099745718832957	1.9699284099659582	3.5615329565950846	0.0000602555825793	-0.0000364041066497	0.0000219326380492
Al	4.4754255168257986	5.8935923211283265	4.7150857667492172	-0.0000162470791371	-0.0000216992602329	0.0000148585415369
Al	4.3032251245450368	4.0229314773763303	2.5123823505818228	0.0000288504927411	0.0000341069161268	0.0000673812834468
Al	0.8272101943180952	1.7658815452924963	5.3934008113093537	-0.0000253631518708	-0.0000592969572783	0.0001074393118306
Al	1.9469310650261480	4.3642682409089630	4.7468146404214533	-0.0000638025242694	0.0000840791873718	0.0000506522904420
Al	4.4720199358849770	3.3421777997150985	5.0290736933942863	0.0000352009002556	0.0000289675207078	-0.0000706185433812
13
REF_energy=-718.6308996347327138 charge=0 Properties=species:S:1:pos:R:3:REF_forces:R:3
Al	7.4458008251532686	2.0259010299592450	0.8265666181702868	0.0001442798376804	0.0000562859776555	0.0000905868560237
Al	9.4565145776275958	0.9635836066574986	-0.5692668838715865	0.0000333965516197	-0.0000798689387600	0.0001139736970180
Al	5.4314767320617925	1.2651752426361718	2.4047381575336351	-0.0000090138158410	0.0001034727803167	0.0000935261243751
Al	3.8159679267391469	-0.2128062251727131	3.9013143912678334	0.0000944128106689	0.0000126873784194	-0.0000325612547953
Al	6.0903615905311854	0.4769145539463217	4.8851989264659172	0.0000628914823818	-0.0000587815195596	-0.0001234256719753
Al	7.2835224499369478	1.4912864243739921	-1.8426114364128032	-0.0001186503429957	0.0000075537254934	-0.0000453153372419
Al	5.0624680608602635	0.6149452391535812	-2.7589539175617426	0.0001412052272494	-0.0001559752979772	-0.0000003953629406
Al	7.9727713798976625	0.9297009127679445	3.1864414595142452	-0.0000766590387824	-0.0001470902270801	-0.0000634560969999
Al	2.1705204547440418	1.7571540158604588	3.3747510542883346	-0.0000503969897542	-0.0000376848131541	0.0000044267604596
Al	3.1203212614614313	0.3927465732188812	1.2752339564352113	-0.0000172179354734	0.0000378493182666	-0.0000005980138491
Al	3.0898949554598705	-0.0516313078941879	-1.2776845967206207	0.0000100545225853	-0.0001353613829755	0.0000662908369767
Al	9.9477473151791198	1.8341716851550174	1.7856156335694711	-0.0000763247554437	0.0000158599047891	-0.0000411039157587
Al	5.2679732232265559	0.9686257394107740	-0.1878597764761609	-0.0001379775538952	0.0003810530945656	-0.0000619486212924
13
REF_energy=-703.8224223127671166 charge=2 Properties=species:S:1:pos:R:3:REF_forces:R:3
Al	5.8182608859778302	4.9268055773884738	3.7668752483698285	0.0003075552777490	-0.0000210206559731	0.0000467753829619
Al	-4.3632898241558351	3.0740072603278503	2.5183240558588809	0.0000229412930581	-0.0000325028859336	-0.0000548396966909
Al	7.7931692719914762	5.1996054022634786	5.6306142872675382	0.0000618476965124	0.0004149703868077	-0.0000028525583076
Al	-2.7759900876885530	5.0505682766869011	1.5023113831009407	-0.0001035945077088	-0.0000494835040749	0.0000162104187755
Al	0.9060130131078205	4.0248227799783702	3.1657605394617145	-0.0002495802289088	-0.0001157591932949	-0.0000197429586036
Al	-0.4717839174347996	6.4713182263003617	1.0849199701577488	0.0001642646442560	0.0000066310394253	0.0001063442947819
Al	8.3606868573138620	3.9651531362783006	3.5066007822534835	-0.0001982030643860	-0.0004183411542494	0.0000334326849156
Al	3.4745319298427018	5.4921337400486863	2.7839858841500313	-0.0001335574416691	0.0000962406732101	-0.0001383125372580
Al	1.3129568279226391	6.7788725263349239	3.1234700273932572	-0.0000742675338657	-0.0000514387953081	0.0000373663919709
Al	1.9009896388756660	5.1532621655286368	0.8214490426204667	-0.0000179552647468	0.0001336474193309	-0.0000134904190450
Al	-0.3624566354295368	3.8554825753013131	0.8384472674400835	-0.0000308648006127	0.0000940035130505	0.0000477636361226
Al	-1.6276948994855720	3.1965606928348067	3.1052496731203005	0.0001308594800154	0.0000165989844935	-0.0000858287263903
Al	-1.0549104259716580	5.7737011230424340	3.5528688236216381	0.0001205544503069	-0.0000735458274841	0.0000271740867670
13
REF_energy=-704.3369992485469311 charge=2 Properties=species:S:1:pos:R:3:REF_forces:R:3
Al	2.6742565508172893	6.1383070284909325	1.3925034384350641	-0.0000314730801806	-0.0000331532050710	0.0000061510334269
Al	4.2341909896384111	4.3762672926669266	0.0927495495891722	-0.0000856335328981	-0.0000234118702620	0.0000604348468227
Al	5.4322379990303791	5.2682413002591648	2.2149071527889714	0.0000901610596461	-0.0000432260599578	0.0000764470089116
Al	6.7228087912278722	8.8426040051361738	0.8143805543867150	-0.0001467748413736	0.0000286083261673	-0.0000094269776695
Al	3.3992331940923619	8.1294679423650980	-0.2056645275605584	0.0001286725358135	0.0000463645694416	-0.0000394363746844
Al	1.0445855693140214	6.9855427932395378	-0.8789673000255148	0.0000289549564625	0.0000416440278803	-0.0000877357312434
Al	5.6354329514036179	6.6185677450273595	-0.2578179607654772	0.0000733287797735	-0.0000425606858025	0.0000422433113921
Al	1.6383515728361329	4.4081945395435094	-0.5004359594594336	-0.0000246035826763	0.0000556826805745	0.0000193763063255
Al	4.6258784793731627	7.8206157785034218	2.0829150046439806	-0.0000490160750973	-0.0001156191360098	0.0000774027569970
Al	-1.2814205393044669	8.3094827442692463	-2.0122987878677931	0.0000220481267195	-0.0000077402360659	0.0000421078929719
Al	0.0901963131242155	1.9834345536163935	-0.7231059874949294	0.0000108164816105	0.0000126680910990	-0.0000324391251607
Al	7.3628875628797230	7.0183323093487404	2.5691730914602062	0.0000021862000356	0.0000975402474276	-0.0001482144770660
Al	3.4742262855778931	6.0411174909973422	-1.7679046157021414	-0.0000186670278354	-0.0000167967494212	-0.0000069104710236
13
REF_energy=-705.0471057716124506 charge=2 Properties=species:S:1:pos:R:3:REF_forces:R:3
Al	3.2978159217620537	3.0432990455248041	3.7838943386298718	-0.0000521176998619	-0.0000007675599435	-0.0000433476343960
Al	1.5280340572005218	0.5214744226092963	3.6790717078477781	0.0001044139723332	0.0000398813392671	-0.0000759835030620
Al	-0.4328597005604116	1.2377982817567024	1.0374584035989010	0.0000401424942094	-0.0000455404080567	0.0000042146527616
Al	0.8554333391844363	2.9171975219671920	2.6606316397828564	-0.0001209192884319	0.0000312909909470	-0.0000363913188547
Al	3.5801191724329393	0.9407809353956420	2.1011556464770953	-0.0001163810331069	0.0000001531465579	-0.0000035711712487
Al	4.5331138466070655	2.7195064665797664	0.4045460930503806	0.0000138329766578	0.0000029839501728	0.0000069506648963
Al	2.8626122142351216	4.4578199076326079	1.6099603176787207	-0.0000886568074217	-0.0000112318042604	0.0000509078606228
Al	1.9395120024016403	2.1758408328963839	0.2713589682051239	-0.0000918953650637	0.0000512344438028	0.0000490302133856
Al	3.1307311813944598	7.3104073684208473	1.2200827893703003	0.0002816068509344	-0.0000868370490491	0.0000284460788038
Al	-1.0459634424073105	1.2966133161543059	3.6653475996872409	-0.0000325941635414	-0.0000219622270333	-0.0000004147847723
Al	1.4833554587814897	-0.5556035221768114	1.1867275014147376	0.0000041728664741	-0.0000236584912418	0.0000570632077952
Al	5.6637729901575460	2.6577877856734555	2.7079434662464141	-0.0000471420128654	0.0001343559444367	-0.0000429027730790
Al	-0.5307783596126768	-1.0827805198486615	2.7841565355573876	0.0001055372096840	-0.0000699022755997	0.0000059985071475
13
REF_energy=-720.8262123736558351 charge=0 Properties=species:S:1:pos:R:3:REF_forces:R:3
Al	4.6300210527372148	5.8209831188600667	1.5095502407530841	0.0000585838205340	-0.0000854456786945	0.0000215753909045
Al	3.9628028450290458	6.3536381942452405	4.2900299812946274	-0.0000571442912528	0.0000833202757260	-0.0000023843075055
Al	3.5462490554950699	3.9918502099432338	3.0332228972686450	-0.0000051727676585	0.0001867581023249	-0.0000470719972281
Al	2.7050995603686525	1.9294151807175397	4.5741285938232448	-0.0000299535946089	-0.0000120531126734	0.0000631055471951
Al	0.0056787525322902	5.5001946528165666	1.7818473215073944	0.0000167387877007	-0.0000861340821917	0.0000347810192862
Al	2.3117297047860728	4.6396872188564444	0.7761679740043356	0.0000184419661772	-0.0001017383950474	-0.0000592925767423
Al	0.0266731273730112	1.0754311516058204	4.3487766248881341	0.0000186747454711	0.0000305554682954	-0.0001203014600977
Al	1.3731201906339743	5.4288135087649660	4.1803584309046409	0.0000368768448770	0.0001033464011011	0.0000417839931694
Al	0.7006946400149324	3.4467736212210043	5.6423066334372880	-0.0000080968783638	-0.0001022870998228	-0.0000378696176997
Al	2.3033228969760273	6.9131854341895140	2.3364901358455659	0.0000093701495761	-0.0000628514812899	0.0000523023404063
Al	1.1829064433520207	2.9257539906955050	2.6712929464739208	-0.0001267436264315	0.0000537467690791	0.0000581081638553
Al	-0.9892499912826521	4.0654610897620094	3.7336058052877790	0.0000425126046538	0.0000110483907620	0.0000561967391385
Al	3.2957144597147789	4.2840771183492334	5.8397236686208958	0.0000259122393256	-0.0000182655575690	-0.0000609332346821
13
REF_energy=-720.4957643043644566 charge=0 Properties=species:S:1:pos:R:3:REF_forces:R:3
Al	0.4853679552921925	4.5101515430651995	7.7877060552089477	-0.0000419431181514	0.0000054679211925	-0.0000139051835527
Al	-0.2899595593934611	3.5523079884659481	3.4019354091750538	0.0000082074925529	0.0000316443035956	-0.0000516823568044
Al	2.0970474747897172	6.1590214645701815	6.3708233832472523	-0.0001807806155306	0.0000935586127440	-0.0001411487192733