13
REF_energy=-725.8006607507620629 charge=-1 Properties=species:S:1:pos:R:3:REF_forces:R:3
Al	4.2377305068866038	2.5960714163430176	3.4416801697631674	-0.0000025924195711	-0.0000211610008503	-0.0000099056769017
Al	2.0870003960371792	4.1461945747010711	3.2444297927808514	-0.0000179949699806	-0.0000135349507514	-0.0000050339302782
Al	4.4463156109849669	5.3555437703337017	3.0480617326210262	-0.0000118272200184	0.0000117401195641	-0.0000355578693638
Al	2.2411439790149728	6.1823855067986555	1.5422343899039928	0.0000092503368843	0.0000198932675229	0.0000177324130972
Al	-0.0636576843780650	5.6964118245961251	3.0473086533449787	-0.0000215890677616	-0.0000217951429324	-0.0000047148837230
Al	-0.2722497084763826	2.9368115468136340	3.4410541081353645	0.0000064682592436	0.0000200114011087	-0.0000298748031964
Al	2.2704531884922083	6.5750307804763759	4.3096286626728979	-0.0000323019004629	0.0000027487468089	0.0000286608946228
Al	1.9328857912295729	2.1099657739666937	4.9466305797309760	-0.0000162018167284	0.0000100025801261	0.0000196601706457
Al	0.7170070142898021	4.5691957157983083	5.4831230177426455	0.0000058873653744	-0.0000290296403730	0.0000023270237028
Al	3.4570109305182077	3.7233296356564849	1.0057879395923799	0.0000063963857022	-0.0000194049965530	0.0000295674462042
Al	0.6695904638475196	3.9338640409834613	1.0054428022163651	0.0000449466479156	0.0000112792703656	-0.0000205082904884
Al	3.5042320255044825	4.3584596565617204	5.4836293172528343	0.0000655939063099	0.0000235973542697	-0.0000201672752842
Al	1.9037058756908973	1.7174058688238030	2.1792146222066560	-0.0000360355069071	0.0000056529916940	0.0000278147809631
13
REF_energy=-724.8293770092723207 charge=-1 Properties=species:S:1:pos:R:3:REF_forces:R:3
Al	3.3335912490192805	2.2163502277983049	4.5389994026289893	0.0000173407428498	-0.0000408086344598	-0.0000721661250438
Al	3.5772731355097322	4.7818460262718734	4.2355432644922804	0.0000357505040975	0.0000914105174503	-0.0000000120495296
Al	4.4800403945521445	5.6200840910641228	1.9049893041790449	-0.0000026478890660	0.0000270835772723	-0.0000135065553123
Al	2.2897553198285139	4.2584532260035033	1.3589718780758484	-0.0000150774390386	-0.0000542522433700	0.0000897673855452
Al	0.4019822674253853	4.7367742437284113	3.8913352539145789	-0.0001328181189074	-0.0000110056538063	-0.0000115471344877
Al	0.6465164943330149	2.1781655974364220	4.2476366307298665	-0.0000302387272589	0.0000224616475167	-0.0000570642839959
Al	2.1015575876852273	6.6299352529952325	2.7857566353986627	-0.0000263368635206	0.0000785397622255	-0.0000341138421715
Al	2.2441841681224610	1.7735697150346639	2.1051066846124025	-0.0000577202228762	-0.0001155633737779	0.0000117571066063
Al	1.7791111223889007	3.7898253396817063	6.1312307090084897	0.0000178632445930	-0.0000374713818387	0.0000689237108926
Al	4.6357215017782361	3.0654810347593258	2.3002996189293632	0.0000863369928238	0.0000010754562228	-0.0000309603537483
Al	-0.0038928938704689	5.5566414729260867	1.4190841949844324	0.0000726542437986	-0.0000112087159373	-0.0000739068375784
Al	1.8142566127333444	6.2961203183581889	5.4798618048651040	0.0000159386875009	0.0000089373841893	0.0000607717447183
Al	-0.1689285698638311	2.9974235657944379	1.7794104061454443	0.0000189548450043	0.0000408016583132	0.0000620572341050
13
REF_energy=-724.3262023506829337 charge=-1 Properties=species:S:1:pos:R:3:REF_forces:R:3
Al	1.6747824351084157	4.5077288901815411	6.4576432058268241	-0.0000102288617293	0.0000680835429485	-0.0000239826213838
Al	0.7031765595694067	5.0945701698068069	3.2503791670425510	0.0000033505710157	-0.0000006866277856	0.0000267193898084
Al	2.4207995871520591	3.2544222932602289	1.6678036414606230	-0.0000087507798654	0.0000039019498238	0.0000022678529735
Al	2.3698479100837853	5.8342076481727858	1.1234433938759025	-0.0000118753050954	0.0000320727278645	0.0000544405793301
Al	3.3833437908781456	6.3864758260740437	3.5160340574797178	0.0000192311840146	-0.0000582315851056	0.0000679303234563
Al	2.1844240322708148	1.4423541852722108	3.5693074182717814	0.0000104934095554	-0.0000542250713722	-0.0000446651198558
Al	4.6757494265857522	4.5475083229823952	2.1606453846790132	-0.0000199845166014	0.0000265756421979	-0.0000406848868106
Al	3.2119523386926483	3.8907828246962572	4.4621099712540815	0.0000050215391512	-0.0000138203767852	0.0000162061853526
Al	-0.0657101110777027	2.5801777115320572	2.2692316771728613	-0.0000280275583716	0.0000293685669649	-0.0000096616181030
Al	0.0836146108398692	4.5991064366190626	0.6663286796689163	0.0000263846332075	-0.0000134929072277	-0.0000118980573044
Al	1.4127530759557674	6.6885021903939270	5.1693803933218119	-0.0000242075888444	0.0000264802754431	-0.0000919113507218
Al	0.3975768812714388	2.9549258749906762	4.8251905728920015	0.0000465253854315	-0.0000385847149588	0.0000478939414561
Al	4.6788578523115332	2.1199077378710593	3.0407282250181251	-0.0000079321118682	-0.0000074414220076	0.0000073453818023
13
REF_energy=-724.2592912671246950 charge=-1 Properties=species:S:1:pos:R:3:REF_forces:R:3
Al	-0.5930177046426816	4.4782294650312577	4.1254697268283271	0.0000218278877282	0.0000191181863841	0.0000839916641078
Al	1.0417307281165715	3.8122911472647538	2.0283935179385537	-0.0000225633901904	-0.0000269211381430	-0.0000090283890171
Al	2.1488129785845587	4.7261033166562969	4.5273201438469863	-0.0000118624935724	0.0000372142111905	-0.0000595180735009
Al	1.0913385834322722	1.0394044690902458	2.2455771762975187	0.0000392394532942	-0.0000424947411553	0.0000072145800151
Al	2.2467050486908171	1.9880028093512898	0.2264416403042110	-0.0000543525426262	0.0000839081565403	-0.0000222632359841
Al	4.9293748364613181	3.3675760987985992	5.2979567617511405	0.0000141297673588	-0.0000995051163010	-0.0000132439731408
Al	3.6722522197917153	3.9398739793453390	1.0326423334930130	0.0000435640772270	-0.0000188893337866	0.0000706172273656
Al	3.2563917658805162	2.4074132318712440	3.2227383525512949	-0.0000112716717155	-0.0000224897172469	-0.0000071494458947
Al	4.5535803201832881	4.9050562423247888	3.3013052929311661	0.0000335949619653	0.0000399639174935	0.0000098305031987
Al	2.6853887503157665	2.4419363687517097	5.9449695555090472	-0.0000197808239752	0.0000891137844977	0.0000763051419018
Al	2.5465375985292562	6.0595186769781764	2.0792164458203439	0.0000123067746258	0.0000083832163922	-0.0000452811017148
Al	0.4223845054674830	6.6444161899336995	3.3588964120762808	-0.0000510009756009	0.0000171534172795	-0.0000309411504124
Al	0.6258808132860267	2.2552799435813800	4.4442239055817749	0.0000061689754813	-0.0000845548431450	-0.0000605337469243
13
REF_energy=-723.9727466702624952 charge=-1 Properties=species:S:1:pos:R:3:REF_forces:R:3
Al	4.2601515284893274	3.7434916226738948	4.9530037905574638	0.0000475161338859	-0.0000370805013704	-0.0000291631371341
Al	2.3585864326145520	3.8398400041823741	3.0517307170100625	0.0000087693796660	0.0000266682394039	0.0000313952458697
Al	3.2265892149313973	4.3532386177743962	0.6050895740260976	0.0000610618059074	0.0000155149784592	0.0000728240765522
Al	4.5615690860511702	5.3642041091280168	2.8002780072526803	-0.0000290846209705	0.0000016013458938	0.0000941003308837
Al	2.1402094559601204	6.4679004130433766	2.1576259562326356	0.0000247429189361	0.0000071598708629	0.0000063306467514
Al	2.7054199971638520	1.5486614058442465	4.3297705507814443	0.0000306492646787	-0.0000014172186717	-0.0000296340862733
Al	2.6968197786127996	5.9204598283081422	4.6657890219740068	0.0000049481670341	0.0000269539045149	-0.0000378835411357
Al	0.1890608611429827	2.5509407708382565	3.7078112625106887	-0.0000159090929278	0.0000061089542717	0.0001414259380119
Al	0.2494178516610641	5.3498155697817618	3.8936319415286600	-0.0000297914968965	-0.0000404315791334	-0.0000356853546344
Al	0.5294754864756552	4.3833873159473242	1.2748033679732824	-0.0000185421642166	0.0000258768914635	-0.0000689814739354
Al	-1.9232373547408230	4.1054077174970276	2.6528596474381554	-0.0000170402187118	-0.0000532069834924	-0.0000909697769985
Al	1.6385444262344644	3.7697540596036139	5.7406904632454632	0.0000560152142638	0.0000504699837525	0.0000504830072969
Al	4.4985616250455012	2.5035686772305334	2.3451414874334788	-0.0001233352906488	-0.0000282178859545	-0.0001042418752544
13
REF_energy=-723.9371089222714772 charge=-1 Properties=species:S:1:pos:R:3:REF_forces:R:3
Al	4.7339951877964026	3.7115376709957935	3.6206194828122062	-0.0000032401754113	0.0000196096342235	-0.0000341027052110
Al	2.6185301461354644	4.5393421200312289	5.3252172656426859	-0.0000159101280128	0.0000801240919992	0.0000525024147092
Al	3.3268252826137128	4.3372609892955278	1.5449144827396375	0.0000176967832338	-0.0000157640978927	-0.0000396457702038
Al	2.5329478271662573	7.2398222119854978	1.5886961484014461	-0.0000256746526817	0.0000049254364050	-0.0000217455616164
Al	-0.1784302197540548	4.1705913716380136	5.0997408848646950	-0.0000272061407286	0.0000393183904976	0.0000646290672481
Al	-0.4814791890174721	3.5462269551649417	2.4647669524981857	0.0000023638369266	0.0000787154092678	0.0000382997326521
Al	1.3260946094168544	5.4824199998632119	3.2765997416309620	-0.0000170455665629	-0.0000711286969350	-0.0000027551434568
Al	1.9941187598062522	2.7443052897606406	3.2845306314145937	0.0000226212803590	-0.0000278104077585	-0.0000492101246656
Al	1.3154857840370084	2.1699935740798209	5.9089618368849539	-0.0000394558980386	-0.0001421184205994	-0.0000819112483010
Al	3.7468395532827268	1.8500073823836403	5.1134978780839768	0.0000613146216368	0.0000265294727487	0.0001238552409656
Al	1.0055490083066594	5.2823066087096029	0.6690510614876773	-0.0000261619437819	0.0000210392758026	-0.0001092211536205
Al	3.8631716566166108	6.2091577555453821	3.6321745681479078	0.0000816213114010	0.0000007524390176	0.0000522036072472
Al	1.3275199832353739	2.6176981823993120	0.6494548533548407	-0.0000309233283392	-0.0000141925267764	0.0000071016442529
13
REF_energy=-723.9315422426598161 charge=-1 Properties=species:S:1:pos:R:3:REF_forces:R:3
Al	0.8529949288290325	1.1952284941663049	3.2263381016855486	0.0000965640151692	0.0000919427772260	-0.0000897757464449
Al	0.5963044057985513	2.6569684434935712	1.0616303611351658	0.0000453693066202	-0.0000293972685435	0.0001014592919862
Al	3.8743079586420572	5.3456458578374422	1.1823899532788633	0.0001901572378018	-0.0001395478138323	-0.0000866941350945
Al	1.2943541465049351	5.1347432618062330	1.9128199199633804	0.0000476440899324	-0.0000628432288707	-0.0000426856920484
Al	0.8049701370448378	5.9383033268878753	4.4104789813459035	-0.0000430190763879	-0.0001131873429439	0.0000568517101719
Al	4.1251355067663296	3.3689303082536028	5.1159972495845931	0.0000735362357962	0.0000415338774756	-0.0001667049057206
Al	3.1182646805537169	1.0894806820027401	4.4254346324391403	-0.0000213268754498	-0.0000482032429475	0.0000407826331193
Al	3.3251612459894888	5.4482630328903641	3.7167421557208629	-0.0000182018899765	0.0001946948969646	0.0001110177533407
Al	2.4987049433624304	5.3104360835169926	6.4289445962571605	-0.0000374496745522	0.0000018931277564	0.0000030384005674
Al	2.9163640531827921	2.9395193522354401	2.3867966658413873	-0.0000828354815829	-0.0000886294222298	-0.0000246759690149
Al	-0.6167865096075623	3.6561184899982142	3.2238383792496421	-0.0000997904526344	0.0000282619463487	-0.0000034389550871
Al	1.4974354715902218	3.3686963542910235	4.7346214896788927	-0.0000682725264677	0.0000324293491312	-0.0000087653775601
Al	2.4376879795322735	3.8146969036570169	-0.2702872368162829	-0.0000823749082683	0.0000910523444652	0.0001095909917850
13
REF_energy=-723.9094675420052454 charge=-1 Properties=species:S:1:pos:R:3:REF_forces:R:3
Al	0.0527093591717351	5.3393433903871035	2.1241931826529399	0.0000016055453642	0.0000770458874764	-0.0000697774255297
Al	2.0052152198939641	4.3852732577573805	3.5398740102291804	0.0001189961732521	0.0000264897817163	-0.0000834002797459
Al	0.7012901011902931	2.7966601706128906	1.6166340639566392	0.0000347503532718	-0.0000072864122040	0.0000430649264383
Al	-0.4923643706661004	3.7008884411277529	4.2297994474845337	-0.0001562424341534	0.0000014418535742	0.0000041430155148
Al	3.4035513586317712	2.5819069368700664	1.9116285012693317	-0.0000144594806743	-0.0000062143292692	-0.0001118967630848
Al	1.6139205432155037	3.2946368995639186	5.8997063916527450	0.0000290928294997	-0.0000795532752230	0.0000079176274549
Al	6.0310185092434763	3.2409987131011775	2.2194775249600700	-0.0002374729697332	0.0002446112091224	-0.0003083340569098
Al	1.5215369097604177	1.6401989582427086	3.7628501503530893	0.0000078501793328	0.0000720310095070	0.0001103518260400
Al	3.7304309042464645	4.9549980656344417	5.5914699090019955	-0.0001261092815450	-0.0001654764100326	0.0001046859015602
Al	2.3036847023790217	6.8245043435247554	2.2838388695191849	-0.0000742372282747	0.0000818824790562	-0.0000838927500847
Al	3.9886804748931723	2.5849953397314072	4.4065138736309963	0.0000068008732136	0.0001141973971550	0.0001993569823376
Al	4.4349654883734857	5.3081677089732349	2.9922917341819466	0.0002353791560700	-0.0001637952416977	0.0000995258963800
Al	2.5008413485174592	4.6646667781159481	0.7241026066628927	0.0001740462843761	-0.0001953739491811	0.0000882550996291
13
REF_energy=-723.8495564657152954 charge=-1 Properties=species:S:1:pos:R:3:REF_forces:R:3
Al	3.3357167987125864	5.4178243524384406	5.3175373667761905	0.0000306525885444	-0.0000050638795148	0.0000207793106600
Al	1.7615471970257706	3.8679068918200250	3.5180510500012767	-0.0001027199584294	0.0000695216948502	-0.0000133113964082
Al	0.5993377937859969	5.1755811349367926	5.5295326018739743	0.0000673591309639	-0.0000644305047776	-0.0000695356159980
Al	4.2701534231548361	5.0317927831227367	2.8833483100247230	-0.0000753060098288	0.0001069126483374	-0.0000840826508318
Al	2.6577723270511320	4.3796963827280777	0.9785942246033519	-0.0000278261687808	-0.0001421652455597	-0.0000731862210973
Al	0.3989633985697450	5.6111098033213658	1.6348794504537800	0.0001296860686300	0.0000145818042286	0.0000007342231237
Al	1.9716529939124410	6.6476431818809338	3.3592128602483173	-0.0001007235475045	0.0000468031397363	0.0001195678553594
Al	5.1771779211634819	2.9011019547220505	1.3510549251723418	0.0000946854172246	0.0000644913424426	0.0000622706599130
Al	2.2232182736525372	3.0467236098038426	6.0368939711652603	0.0000005276331060	-0.0000519666929440	0.0000100941188257
Al	0.2700765794493886	2.8709839702734090	1.5450332377227796	-0.0000400459508076	-0.0000172107188588	0.0000849650607662
Al	-0.8539395044610727	4.2082354252625036	3.5915388446562542	0.0000423893461570	0.0000973019251606	-0.0000478131867902
Al	4.0033484561737946	2.5614576515981962	4.1025598246123502	0.0000465394334348	-0.0000315737582109	0.0000114360040528
Al	2.6312249628548581	1.7649690338605080	2.0303886347527262	-0.0000652179827097	-0.0000872017548897	-0.0000219181615754
13
REF_energy=-723.8429215209687300 charge=-1 Properties=species:S:1:pos:R:3:REF_forces:R:3
Al	1.1963176729430083	1.2749469366670607	2.1612041096172430	-0.0000395457856087	0.0000038538660513	-0.0000101218956529
Al	2.8796630334986779	6.2602630208766445	4.1633436480231802	-0.0000271079536448	-0.0000048404482010	-0.0000198195727892
Al	0.6563578180382729	3.8432361248290476	1.2291582636983636	-0.0000046555274178	-0.0000004894488015	0.0000148905536085
Al	3.9406697091915399	4.2583448476205970	5.7828387930720293	0.0000313169360405	0.0000009401504560	0.0000142993497680
Al	1.3938717840419999	4.8081974988295508	5.8798897602854003	-0.0000181475269552	0.0000026039820526	-0.0000156778905759
Al	3.0652685430620381	2.6601852847025604	0.9839069840991003	0.0000257412048131	0.0000307959623461	-0.0000313243641207
Al	-0.4222331032355106	2.8340128393719666	3.4831917978988556	0.0000496383269365	-0.0000549104254190	0.0000295011486093
Al	2.3770874896865402	3.3130085603656236	3.6670094786522820	-0.0000308028179208	0.0000043624694702	-0.0000081548913279
Al	5.1328225128298195	4.2043557374956828	0.8445445112574270	0.0000015462717862	-0.0000170379740215	0.0000076313700520
Al	4.8812606614720231	4.6344627244491230	3.3803532086102077	0.0000102177459212	-0.0000090136244482	0.0000129276772934
Al	2.7434106858425840	5.3334302374153770	1.7251056443572239	-0.0000088733932487	0.0000053611412262	0.0000150703819055
Al	0.5570737123105748	5.4422935972231654	3.2921192449070538	0.0000280810244171	0.0000178041997791	-0.0000150490942069
Al	-1.1120895150043011	4.5154219895204992	5.3204459996245337	-0.0000174085051185	0.0000205701495095	0.0000058272274367
13
REF_energy=-723.7959645284089447 charge=-1 Properties=species:S:1:pos:R:3:REF_forces:R:3
Al	3.2555249202336758	3.5757269351111689	5.4184256948911962	-0.0000216095176043	-0.0000680836295889	0.0000059470023613
Al	1.7283522850777737	3.7217002521934353	3.3418108344417621	0.0000456406248424	-0.0000788424162089	-0.0000514516900486
Al	4.3170325398787481	4.4158909104292405	2.8720378780680424	0.0000431065475495	0.0000293659434480	0.0000695602552120
Al	2.3681517797315275	5.6933416777358943	1.6225524955907498	0.0000263257432047	0.0000351661491335	-0.0001690314451542
Al	0.1674604873175618	6.0032602538056876	3.1002029302281420	-0.0000373682813678	-0.0000742979107250	0.0000222854316743
Al	-0.8591162466675530	3.4354173290107468	3.4949228459940822	0.0000373682840865	0.0000394314950798	0.0001091433998540
Al	2.6565219657542154	6.1254990385316450	4.2153971064666118	0.0000392609836164	0.0000397304207129	-0.0000842239222936
Al	3.5219262492248493	1.7586562001626442	3.2222317576223207	-0.0000034675225941	-0.0000512308889669	-0.0000754111766032
Al	0.6374698881121741	4.7265502371623773	5.5519975689547625	0.0000157615944104	0.0000642009731905	0.0000702232463932
Al	2.9049272837703901	3.1843493328834418	0.8866380073690414	-0.0000140775088242	0.0000629274151793	-0.0000857076840994
Al	0.3046264190552217	4.1298617049065518	1.0610487284510177	0.0000007329990902	-0.0000254864217345	-0.0000289691168275
Al	5.2046319490846127	5.5296013450877659	5.3356027614432442	-0.0000921037562598	0.0000138703175112	0.0001483356202714
Al	0.9236588690687366	1.6008148948325300	2.0553571784431792	-0.0000395701901500	0.0000132485529691	0.0000693000792604
13
REF_energy=-723.7778732108344002 charge=-1 Properties=species:S:1:pos:R:3:REF_forces:R:3
Al	3.2421446261783844	1.9550027392078382	1.9855043379191033	-0.0000333625680772	0.0000036460730662	-0.0000567940412619
Al	2.5294979302160732	4.0506425825013901	0.4824561182015579	0.0000228470403611	0.0000497407007839	0.0000234554218145
Al	3.7510379698084861	4.5288786574983488	5.7971014105888825	0.0001605360559194	0.0000168683207149	0.0001131997856831
Al	-0.5484792514190037	4.9896882253093553	3.4436987125655585	0.0000355473327311	0.0000378846489358	-0.0000041800847016
Al	3.8538397503691502	6.5037164795724207	4.0456506149936349	-0.0000621369605398	-0.0000456042841948	0.0000669398289388
Al	1.6502878550386810	1.0237972485414799	3.9207768095479776	-0.0000370100082652	0.0000323647008877	0.0000528209101090
Al	1.6224639635318665	3.5473640941564728	4.6371727948112396	-0.0000330572524686	-0.0000248637622227	0.0000337525332330
Al	1.9174611124706811	5.6574747328790638	2.4305403962262839	-0.0000295107597337	-0.0000132238619213	-0.0000695723224913
Al	0.6893856356779934	2.9799998829068790	2.2412303518724088	0.0000842454759761	0.0000292489176152	0.0000141394105239
Al	4.0868262786079859	4.1410487929760169	3.0284707155585138	-0.0001120949885827	0.0000133950752392	-0.0000286775129394
Al	-0.1055660518558186	5.1403437287450791	0.5711097780859108	0.0000356920201558	-0.0001184277822762	-0.0000570762932830
Al	3.9068215979666419	2.0516675032760423	4.8293482260833294	-0.0000304560948206	0.0000001493941275	-0.0001000921156422
Al	1.3680811735407550	6.0593920772811316	5.0770047626281549	-0.0000012392926557	0.0000188218592446	0.0000120844800171
13
REF_energy=-723.7660945400886021 charge=-1 Properties=species:S:1:pos:R:3:REF_forces:R:3
Al	-0.0000663868374776	-0.0000664406644369	-0.0000664900650496	-0.0000227810685056	-0.0000227729455319	-0.0000227702279905
Al	-0.1434771728131539	1.8472389868093824	1.8472389108349661	0.0000234147713257	0.0000040743931492	0.0000038609390809
Al	1.8472389101526097	-0.1434771131745919	1.8472390559839302	0.0000042465946319	0.0000234927547009	0.0000037086528356
Al	1.8472390536729788	1.8472389778926799	-0.1434770571066074	0.0000040849318666	0.0000038655540900	0.0000235678046423
Al	4.1138827256507033	0.8666978934297327	0.8666980186257859	0.0000403750936734	-0.0000104164306125	-0.0000103525649738
Al	4.5282926625331887	2.6427490575122117	2.6427489041842054	0.0000245182721674	-0.0000180108404990	-0.0000175622965874
Al	0.8666979384034676	4.1138826852486750	0.8666979129692746	-0.0000106007591205	0.0000406038690815	-0.0000103736797687
Al	2.6427487713683777	4.5282927631269363	2.6427490698784353	-0.0000180630510363	0.0000244015082858	-0.0000172749716105
Al	3.6618978367174120	3.6618981239563162	0.3230613124853414	-0.0000337366590470	-0.0000338872820752	0.0000499518394175
Al	0.8666978314462743	0.8666979583009233	4.1138826474302990	-0.0000106229468791	-0.0000105608331124	0.0000408242988532
Al	2.6427489366504018	2.6427487833268293	4.5282928607967587	-0.0000177764503574	-0.0000173209684027	0.0000242873361596
Al	3.6618979861139516	0.3230611999968866	3.6618979209591864	-0.0000337341480895	0.0000503095776540	-0.0000339390087664
Al	0.3230610867231799	3.6618977808575455	3.6618980664797149	0.0000506754193706	-0.0000337783567277	-0.0000339281212919
13
REF_energy=-723.7624041995817379 charge=-1 Properties=species:S:1:pos:R:3:REF_forces:R:3
Al	5.0938148887019317	3.6168612412375154	3.8611268059569404	0.0000098411662860	0.0000252860236852	-0.0000788920442152
Al	2.8455623383785151	4.9547707685705840	2.6517905230942764	0.0001463689272565	0.0001545443757150	-0.0000978716347575
Al	1.9296209849383792	6.2252750991303483	0.3701986412447287	-0.0000816904171932	-0.0000488832855265	0.0000124764262293
Al	0.6649790078193272	6.5654833996462516	2.9150960942837747	-0.0000111262360580	-0.0000379552274532	-0.0000395536811167
Al	1.5988226814106541	6.0791412135534868	5.3091228213821386	0.0000019034098726	0.0000370501159996	-0.0000152134597317
Al	0.1568505710789426	4.3577913339448333	1.5607031727798026	-0.0001179804466923	-0.0000161751289132	0.0000158937680432
Al	4.1260810713713667	5.8587704146323656	4.7036521089224630	0.0000001985582356	-0.0000770772313129	0.0001200346041335
Al	0.6065680242733148	1.9130785270923973	2.5578334794049371	0.0000689711450994	-0.0000881971526093	0.0000046341955860
Al	0.5706947337495668	3.9667568440238603	4.1223331764582678	0.0001971732322499	-0.0000114115426694	-0.0000290155493875
Al	3.1362480896488663	2.1583704097657792	3.0031814001582275	-0.0001140292812368	-0.0000007624119694	0.0000423047927991
Al	2.3851036311829064	3.3234193108294279	0.6316588373769059	0.0000569012650746	0.0000689683037902	0.0000587741418847
Al	1.2849088417653600	1.2894609853614860	5.1035944342302884	-0.0001109200515411	0.0000288601880555	0.0000061302063771
Al	2.7958996004255692	3.5247957774115206	5.4443516734805844	-0.0000456112713532	-0.0000342470267915	0.0000002982341558
13
REF_energy=-723.7213882138989902 charge=-1 Properties=species:S:1:pos:R:3:REF_forces:R:3
Al	0.2283829401947041	-1.9150401398937926	1.1401663358791156	-0.0001098843654219	-0.0000878338822613	-0.0000334211408101
Al	0.2683057483365770	0.9702384907275349	4.9314749795098596	-0.0000519532249511	0.0000836769182381	-0.0000231087546453
Al	-1.8670763747652892	-0.6215701656483726	0.4021511747534948	0.0000165717934114	0.0000148248648208	-0.0000362746426034
Al	1.9656593841959420	-0.3089293785158980	3.0364160419844537	0.0000105771755038	0.0000673906366972	0.0000490828801294
Al	0.3476585656671620	0.2344242799357104	-0.8641363163242703	0.0000200799958550	0.0000175017469717	0.0000269074776878
Al	-1.5459957742201249	2.0349266085595348	0.3260830154232839	0.0000180632370357	-0.0000206841825841	0.0001081151832447
Al	-0.5640353850035811	0.2926340553641001	2.4730466520106678	0.0000762260142361	-0.0000655439947653	-0.0000320126879357
Al	-0.5440327382897188	2.9473753209172102	2.6806992111933692	0.0000230985558236	-0.0000929665447055	0.0000404465914353
Al	1.1638977255611469	2.0951111751283151	0.7350524083315694	0.0000182380000309	0.0001726594698009	-0.0000505864503188
Al	2.8532792814294519	1.1879802825430605	-1.3938439364718256	0.0000284033687841	-0.0000313648530442	0.0000211184844807
Al	2.5004713252038373	-0.9127025204348350	0.4550663589207458	0.0000260637475040	-0.0000351876203389	0.0000115907158517
Al	1.9415186388854333	2.3156395964342735	3.2268643176273772	-0.0000216930819590	-0.0000188353925925	-0.0000086901581492
Al	3.5343203987491538	1.2901266006201038	1.2716901300141148	-0.0000537912158526	-0.0000036371662369	-0.0000731674983671
13
REF_energy=-723.7098240552874131 charge=-1 Properties=species:S:1:pos:R:3:REF_forces:R:3
Al	4.6774112722316188	3.6815575910417406	4.5603968871498548	0.0000383316348689	0.0000232874885509	0.0000297022927838
Al	-0.2322829747445272	3.9246716431458410	2.9347776483193893	-0.0000336017725244	0.0000058374133970	-0.0001203079608406
Al	3.4395215329003208	3.9607619628124313	2.2463486208314962	-0.0000540908399794	-0.0000441326849442	-0.0000642694719597
Al	2.4365811086360467	6.3395444050579179	1.5448072881841879	0.0000206551628797	0.0000427733372169	-0.0000781550060675
Al	1.2411368748886034	5.7570895013171119	4.0522801117298766	-0.0000946832779786	-0.0000748979145347	0.0000135141539210
Al	1.6962804098935651	1.8729565674756508	2.1954142246534301	-0.0000015386848429	-0.0000371909165071	0.0000239152625701
Al	3.9053727479159015	6.1091989304371497	3.7790688783051816	0.0000513217624644	0.0000906925809249	0.0000522175391230
Al	2.1080267838217002	3.1080675986970694	4.6857772045016350	0.0000095071755687	-0.0000309172558851	0.0000517470805023
Al	-0.0160178234824460	1.7065694679590491	4.2696842093516230	-0.0000484998092061	0.0000214776467040	0.0000559650210442
Al	1.3227138958208695	4.1820121647210016	0.7587444695754071	0.0000637109363183	-0.0000063743369782	-0.0000569441595736
Al	-0.3210697131432404	6.4524319745915255	1.7985114505260740	-0.0000671264131286	0.0000674456853794	0.0000484623132756
Al	2.8774437867386502	5.2237322082623034	6.1068767721732060	0.0000860272990518	-0.0000334859611023	0.0000270797293514
Al	4.0836199394726513	1.5037714743588304	3.2575038071748463	0.0000299868265082	-0.0000245150822214	0.0000170732058699
13
REF_energy=-723.6999027445922366 charge=-1 Properties=species:S:1:pos:R:3:REF_forces:R:3
Al	4.3791420615991212	3.5291960697607578	1.9221787016979450	-0.0000736076620404	-0.0000352504522201	0.0000799306086376
Al	1.8840010330610422	7.6356925149663200	3.5153963340822885	0.0000396928013962	0.0000129104799044	0.0000561406406213
Al	0.6695462717227129	5.7103169538564131	4.8858862373529481	-0.0000184567214566	-0.0000203271998401	-0.0000380919378918
Al	0.9304193486337723	3.4461569835957011	3.5681379762413257	0.0000592381215912	-0.0000345599320429	-0.0000960419673150
Al	1.8427287747046255	3.2731474274958789	1.1327587327772168	-0.0001303856426139	0.0000592496821139	-0.0001300402907540
Al	3.1622054175698429	5.2748355167356475	3.4515722525714407	0.0000378311506808	0.0000275386966689	-0.0000594952589709
Al	3.3438688392091569	2.4440751507983891	4.0536406215263563	0.0001011479940921	-0.0000320748730848	0.0000452570270558
Al	3.1945458379295406	6.7547311200671079	5.7760345070330379	-0.0000344233642419	0.0000528799442838	0.0000086673884916
Al	-0.7719517454594890	3.4152076772235982	1.1200434609944849	-0.0000393204935898	-0.0000270124036166	0.0000022619447035
Al	2.5060012308757607	4.0791610392362170	5.8568278121011685	0.0000287902811514	0.0000347486797034	0.0000720732275330
Al	-1.1263362215730359	5.1074342668661714	3.0640204128406672	-0.0000421768505630	-0.0000053731744013	0.0000148082817324
Al	3.3492955540312646	5.5583915233162680	0.6943193227094359	0.0000588952855136	-0.0000272579644285	0.0000312681019215
Al	0.9362770685331807	5.8758558989012144	1.7199881780075266	0.0000127751000803	-0.0000054714830401	0.0000132622342351
13
REF_energy=-723.6713245760762447 charge=-1 Properties=species:S:1:pos:R:3:REF_forces:R:3
Al	2.5604481820500919	4.0048597581961571	3.0023163926416370	0.0000087253528779	0.0000555768493170	0.0000697638090113
Al	2.2017999696549078	1.3955573869803473	3.5102779689295756	-0.0000913752108309	0.0000583173713364	-0.0000179542312706
Al	1.8843808827794104	3.0593821434376789	5.5394575600025924	-0.0000096051580937	0.0000165988920811	0.0000373836920353
Al	0.1310372431064631	3.0743887721022580	3.0785721339944492	0.0000620472649221	0.0000466996962739	0.0000176546970321
Al	4.2240366685669262	4.3488650723477305	5.0384544487056626	0.0001770643238057	-0.0000947019141415	-0.0000261562639300
Al	0.8882324403971134	5.3071390350066530	4.6484009421782311	-0.0000119299978830	0.0000462705281976	0.0000284390783015
Al	1.4720850319073202	3.8438112561114459	0.6459654311970265	0.0001239744375408	-0.0000777148365760	0.0001207462664288
Al	0.1610101991250923	5.6768464887820960	2.0635891292299688	-0.0000646410793615	-0.0000292374473793	-0.0000379218437112
Al	4.1602011417073941	1.5159598897829492	5.6589430546418873	-0.0000537154602697	-0.0000897337746683	-0.0000298576346924
Al	2.6717748065049238	6.5706103442337103	2.8827191793898876	-0.0001428642857538	0.0000106103728574	-0.0001760064402757
Al	4.1466212349313594	3.9034784044143742	0.8135002234112408	0.0001012730503734	0.0000709513865805	0.0001068172947934
Al	5.0490209523793297	5.3735883652301588	2.7633339545297857	-0.0001025134680560	0.0000077179599752	0.0000262777340128
Al	4.6880051733409038	2.4620555628190393	3.0210069337685099	0.0000035602307289	-0.0000213550838541	-0.0001191861577354
13
REF_energy=-723.6485317583337746 charge=-1 Properties=species:S:1:pos:R:3:REF_forces:R:3
Al	2.2194825511574736	2.4755390267369144	2.7318899840638409	0.0001130260500981	0.0001032363168356	0.0000735096572972
Al	0.3654847721235034	4.1270281881690103	1.7043796081079510	-0.0001238841597595	0.0000580260257375	-0.0000903739521539
Al	4.5959475741573943	3.0875708422459276	3.9065180498825205	-0.0001411079126974	-0.0001716362903688	0.0001349493195998
Al	1.5075142943223852	6.1034250326559309	0.1837129288524595	-0.0001303841145261	-0.0000202902416342	-0.0004464309977690