13
REF_energy=-720.3480423081128947 charge=0 Properties=species:S:1:pos:R:3:REF_forces:R:3
Al	1.1896274697661908	2.2690189955997626	0.7886732357391062	0.0001173390522999	0.0000108840526688	0.0000139245717961
Al	0.1363495525593702	6.0102130263679587	3.0067526860403553	0.0000951990671438	-0.0000233207654357	0.0000298911143509
Al	1.6089557310166667	1.4667036862645018	3.2575828884279261	0.0000153087590761	-0.0000809228158443	-0.0000073430072479
Al	1.9640714593262873	4.3012733482296914	6.9292119443288955	-0.0001419261168716	0.0000917774791809	0.0001271642052400
Al	2.0024003207427601	5.9967434834980358	4.7943788475185123	0.0000321581772241	-0.0000364420433582	-0.0000253523410893
Al	0.6108380696941016	3.7444966727481326	4.7797573017042581	0.0000274657723344	0.0000970729716072	-0.0000410189867572
Al	0.3469441262359486	4.8729635162272276	0.6451533124117214	-0.0000844156166390	-0.0000743657085362	-0.0000493031579983
Al	4.3382692104465672	4.9189622263380848	4.1665943574728077	0.0000788363997500	-0.0000133248801809	0.0000186682011964
Al	2.2751892889635923	4.1654008324466059	2.6352481837168735	-0.0000019607334281	0.0000320241282725	-0.0001192050817880
Al	4.4922382463732058	5.1161914739659551	6.7974102087335666	-0.0000070622426960	-0.0001738870128659	-0.0000143374498752
Al	2.8243208390265528	4.1959778341942613	-0.0134549030068365	-0.0002543077878214	0.0000508927651876	0.0001008821431973
Al	3.0558388377896901	2.7471959026720443	4.9737805840921814	0.0000791753883895	0.0001222653445371	0.0000700995386914
Al	-0.4891643485032878	3.2642533518435886	2.5418916754191447	0.0000441898812383	-0.0000026535152329	-0.0001040697497163
13
REF_energy=-720.3675791780465261 charge=0 Properties=species:S:1:pos:R:3:REF_forces:R:3
Al	5.8584362306590094	6.2966381929900361	3.0437687697848834	-0.0001243681740200	0.0000604042899664	0.0001463146745165
Al	-1.6003877243583959	4.9019445767157883	5.6466097983382442	-0.0000729929848979	0.0001280517628719	0.0000363963794760
Al	2.7193432261022652	3.4473475330014995	4.7824766341916112	-0.0001648444026164	-0.0000257104918474	-0.0000108100738362
Al	-0.9290710688971722	4.7617133378713525	3.0571963968615421	-0.0000106822133174	-0.0000539240879358	-0.0001687860366711
Al	5.7546562195651463	7.0064419081289291	5.6542742593491333	-0.0000406565849234	-0.0000645719456681	-0.0000256553953548
Al	1.0158366569483797	5.5434965958530240	5.0739049392143354	0.0000708589930638	-0.0000311837088150	-0.0000810688522173
Al	3.3876580109273817	6.7140901866062155	3.9237951869909473	0.0000547922321805	-0.0000483749021432	0.0000948861241331
Al	5.2162205792494447	4.2955682237712480	4.6790654601329535	0.0000714618128091	0.0000547332165820	-0.0000064475604460
Al	3.7103782500034463	4.4250345755244949	2.4754939747500453	-0.0000471515819649	-0.0000163869873113	-0.0000988993468647
Al	3.5886056527903243	5.6351463405511346	6.3002640145818143	0.0001710804895722	-0.0000060914463479	0.0000377668432325
Al	1.2662554884573676	3.1743027588171300	2.4251985775087985	-0.0000119971606087	0.0000110875304329	0.0000392397964568
Al	1.3666362333172559	5.7908578415213698	2.4399417848829730	-0.0001271406683882	-0.0000709042004231	-0.0000032196124912
Al	0.1042366168184782	2.9558155164063544	4.8054086122151922	0.0002316402431113	0.0000628709706385	0.0000402830600662
13
REF_energy=-710.8342150178795009 charge=1 Properties=species:S:1:pos:R:3:REF_forces:R:3
Al	-0.1061470794519534	4.7122957902420124	1.4319577424251038	0.0001233901511913	-0.0001354655347295	0.0000114628047621
Al	1.5768612412882903	4.2020776467287071	3.1866987860630878	-0.0001797035962733	0.0000877708017421	0.0002674398936188
Al	-0.6995837476363539	5.2988993006423311	4.0855561358169794	0.0002228718132929	0.0000830997611549	0.0001762265056549
Al	1.9532868673143751	6.5200509104777309	1.8141819733326461	0.0000439541666865	-0.0001092826209678	0.0000840161704550
Al	-2.2570712486144053	6.1636076404907794	2.2239314447958027	-0.0000729341952797	0.0001881494351842	-0.0001546227226685
Al	-2.2641470579528820	6.0423255808893446	-0.3350138919687349	0.0002728908434366	0.0000703095958782	-0.0000961023097775
Al	1.5069359109287199	6.0955716077174777	5.1600617334019301	-0.0003254078462655	-0.0001176699730906	-0.0000592313850037
Al	8.4780321939149896	6.5292001192691265	2.8572870083767734	-0.0001533746846012	0.0001513318893080	-0.0001168433444098
Al	-0.1917926707126732	7.2656430128594831	0.5727940683210591	0.0001166521252461	-0.0000844493760675	-0.0000434197571694
Al	8.9529042617829049	3.6402648217380964	3.0862692088547692	0.0000189870753212	0.0000915540876567	-0.0002135278281182
Al	6.1102381351055675	5.9284315435317421	3.9039608731133129	-0.0003349322114509	-0.0001158249025921	0.0000905327179855
Al	3.5962055123201324	5.8951204668684722	3.6915965572894232	0.0002370412332792	-0.0000834173497981	0.0002042523369945
Al	8.3837299772267748	5.7449525114854172	5.1378229591658453	0.0000305651254167	-0.0000261058136784	-0.0001501830823238
13
REF_energy=-703.8527349122401802 charge=2 Properties=species:S:1:pos:R:3:REF_forces:R:3
Al	6.4486791805336043	10.4183763330970844	3.7322081872605644	0.0000701206926348	0.0000009978180361	0.0000337604713035
Al	8.9122618786604910	7.2251430736194537	1.7200498374521880	0.0000368360011980	0.0000635677322769	-0.0000193675921787
Al	5.0163811116176111	4.2392573263771407	3.4530942468812116	-0.0001291344351229	-0.0001493590355774	-0.0001907632148123
Al	8.4479044444798479	9.6533378458937005	2.4245471939186349	0.0000570299651531	-0.0000726582985876	0.0001630358196978
Al	6.9543563735577036	5.7156951099780100	2.6020987842211318	0.0000563999103620	0.0000639554450986	-0.0002012776389570
Al	4.0868153996108934	9.2243551298877531	3.3679593397650063	-0.0000242032511181	0.0000868983513654	0.0000109991677595
Al	7.3802137708499123	7.8184752097557899	4.3002477935498851	-0.0001087593972311	-0.0000887992980114	-0.0000120546544384
Al	5.4005969592690448	8.8273980203157674	5.6058441026544505	-0.0000779352756900	-0.0001694516355332	0.0000057724674781
Al	3.9743113005729716	1.7856536095124869	3.5695359991455886	0.0001083094887640	0.0000494428240091	0.0000326104523072
Al	6.0362272203474374	8.2252626061040779	2.0101266963557123	0.0000964783918786	0.0001030396487708	0.0000443573426084
Al	2.0524325491852986	-0.0203254911526103	4.3118861355148477	0.0001228338546202	0.0000039353130565	0.0001755661258019
Al	4.8461587593865367	6.7426820520662902	4.0222716480837013	-0.0001283093604945	0.0000588742743614	-0.0001318332630004
Al	4.0407996831212794	-0.8978253942893166	3.0135467077423042	-0.0000796665849540	0.0000495568607349	0.0000891945164306
13
REF_energy=-720.6185341734989152 charge=0 Properties=species:S:1:pos:R:3:REF_forces:R:3
Al	1.2117741353801437	1.8550188135645125	4.2908053795480470	0.0001257141376272	0.0001138110104730	-0.0001256935172751
Al	-0.9861356987027127	2.0915028410395045	2.5768970712858144	0.0000392773739244	-0.0000147170824608	0.0000591065330142
Al	4.0546792139323600	2.0727223051810251	2.5356860864975279	-0.0000569914084731	-0.0000219549911366	-0.0000049186479348
Al	0.1710726315636402	4.2538098987496991	3.3348845302363057	0.0001406735409901	-0.0000720667196910	0.0000300465179799
Al	5.5312020273038041	0.4945020122791255	4.2854232864183626	0.0000125345660802	-0.0001427165480151	-0.0000203429974690
Al	2.7406781106089912	0.1247742135391785	0.8826751888724321	-0.0000002671311065	0.0001536112695054	0.0000003625789879
Al	2.7819983464550724	4.1172506886883680	3.7464972153464675	0.0000137109138288	-0.0001007272221745	-0.0000279871852169
Al	3.6846332501228924	2.0938227225933184	5.3127349183699666	0.0001368998138988	0.0001054032932081	-0.0000498705960710
Al	4.2781393187520464	4.6962827489383194	5.9953721751356470	-0.0003305883128348	0.0000886250365392	0.0000717090418850
Al	0.5136399522719646	-0.0137062793311207	2.2314611697040769	-0.0000591801940747	0.0000328755353441	0.0001069046196088
Al	5.0222597480342186	-0.5000932288867206	1.9753424680511777	0.0000315835712513	-0.0000926655779272	-0.0000558762123168
Al	2.8434872938057336	-0.0162761328789286	3.6588535515899281	-0.0000372759632647	-0.0000854636559099	0.0000600318011579
Al	1.6551033370252561	2.4825487094836123	1.7450147218051340	-0.0000160909078469	0.0000359856522453	-0.0000434719363501
13
REF_energy=-718.3496477938731459 charge=0 Properties=species:S:1:pos:R:3:REF_forces:R:3
Al	0.6208569832732038	4.2869053623135143	0.0958886459002683	0.0000695039110861	-0.0002258931129669	-0.0000633122443261
Al	2.9593630956498402	4.2461338015635040	1.1367905697776959	-0.0000526957730805	0.0000896332934975	-0.0001186169498470
Al	-0.7342433667926249	2.9902144038628449	3.5683921585521960	0.0000411650040148	0.0000266496747089	0.0000739829119788
Al	-2.3178035104952421	5.0445993400100173	4.2136329700021173	0.0001508299887292	0.0000185045641236	0.0000719797143378
Al	5.4932203542950635	4.0098750629383435	1.2427585512040973	0.0000877615978611	-0.0000298071696499	-0.0000275986762973
Al	4.1001544633564846	2.1110839495011779	2.5908451835540154	-0.0000566932009844	0.0000342964444965	-0.0001311857327698
Al	0.8852419649475065	4.9197129573011509	2.7163153713935024	0.0000413402102137	-0.0000603606110085	-0.0000305799366285
Al	7.2346384555164693	3.9223656003353837	3.2961258689392303	-0.0000894273786218	0.0000926404806388	0.0001721767201180
Al	-1.4987053475381145	4.5899643583294614	1.5394256527766947	0.0000300021269226	-0.0000114732486245	0.0000339888090712
Al	-1.0564985721524465	6.8917986598131753	2.8019768253123392	0.0000476138645007	-0.0000483740505018	0.0000857241400932
Al	-0.5590767098892676	2.1204026277890184	1.0376734505569765	-0.0002207229797372	0.0000696339306144	0.0000380508321153
Al	6.6128149543136123	1.7762691562701216	2.1077238313249871	0.0000377599086640	0.0000309852559521	0.0001442012745145
Al	1.5819689732615352	2.2671670969961895	2.5947974086573766	-0.0000864372795684	0.0000135645487199	-0.0002488108623600
13
REF_energy=-704.6419296813451183 charge=2 Properties=species:S:1:pos:R:3:REF_forces:R:3
Al	1.3049060265742543	4.1779793857838694	1.0689171479921786	-0.0000351238006995	-0.0000107970372569	0.0000195277422046
Al	0.3517353055500374	6.3541878923636572	2.5734505967215191	0.0000135982579225	0.0000124755648054	-0.0000431987818427
Al	3.0759165333244223	-0.4317766270895321	5.9884676884277184	0.0001326416598737	0.0000033102817599	-0.0003232730387184
Al	2.7922177067528544	4.8649288336607501	5.7887109788054154	0.0000587586485322	-0.0000831216401660	0.0001015668856213
Al	0.4164153708591635	5.9180613022958521	5.1466942570755503	-0.0000655669464965	0.0001017957017356	0.0000250516550383
Al	0.5788354822184292	3.7025217002194806	3.5998096055178896	-0.0000687973581957	0.0000449899140554	-0.0000510538106326
Al	2.7170743861879787	6.7584563772311119	3.9494758363252447	-0.0000015538029286	0.0001132303967687	-0.0000722317835977
Al	3.1678365813771485	4.1736889478709163	3.1575854674300472	-0.0000313408673137	-0.0000752370773313	-0.0000131030578151
Al	2.9323683059604213	6.3526024436561688	1.4278495295318629	0.0000971396638788	0.0000404601874810	0.0000737177131340
Al	0.4320556241911678	3.5614173617937093	6.3403822041134967	-0.0000438388247000	0.0000797725671273	0.0001013900840587
Al	0.7648424439103638	6.3912360959624941	-0.1440693435172427	0.0000124010709453	-0.0000713611206795	0.0000568408105546
Al	-0.0425362166992365	7.6606448541098793	-2.6681137748158466	0.0000347122574622	-0.0001331325828585	-0.0000120377837956
Al	2.4215408102215075	2.2731165575856842	5.1457921849356207	-0.0001030299582808	-0.0000223851554409	0.0001368033657906
13
REF_energy=-705.5941769115413535 charge=2 Properties=species:S:1:pos:R:3:REF_forces:R:3
Al	0.6684332753350444	5.1081639372316605	4.6361570128434790	0.0000808860586306	0.0000002818793234	-0.0000553665055079
Al	3.8401100602270732	4.2395077813430895	1.1755029589244297	-0.0000343679046049	0.0000145194044977	0.0000341927952277
Al	0.4954399252918036	2.5011055051083662	4.7163293435425322	0.0001395825349501	0.0000248781163196	-0.0000167475487797
Al	1.9605608769955580	5.7351095354754023	2.4148700349309071	0.0000439404907445	0.0000078617437074	-0.0000141490105878
Al	2.6196226369777400	2.6297023071250800	2.9949521509067325	-0.0000631320406107	0.0000770010404391	0.0000495922292161
Al	4.8020093470711860	4.0667972421750322	3.7977529909873216	0.0000714882955752	-0.0000310975504449	-0.0001090528486142
Al	1.9411636722083838	2.3156979941840468	0.4978407169428442	0.0000091141967878	0.0000117218607155	0.0000446395188085
Al	0.8359340098458868	4.2149607524647736	7.3346013145839004	-0.0001702502790949	-0.0001239487292451	0.0000201571276725
Al	0.1151586867088423	3.5945246029485722	2.2623821458471820	0.0000132304801802	0.0000024972164314	0.0000754829499911
Al	2.9069260324982960	3.4360051457210985	5.5408569164980781	-0.0000641103821412	0.0000270762673649	0.0000141725640894
Al	1.2622161433441270	4.7884940318210303	0.0749275440144551	-0.0000438151122116	-0.0000120984015447	0.0000048891613814
Al	3.1108515727448260	6.1615911342843761	4.8387235467217691	-0.0000203290592799	0.0000609151439839	-0.0000067255335586
Al	4.6456829425039512	6.4216098779614077	2.6997916298800755	0.0000377627210748	-0.0000596079915483	-0.0000410848993386
13
REF_energy=-704.8545681734302661 charge=2 Properties=species:S:1:pos:R:3:REF_forces:R:3
Al	2.2317332543283754	5.4837196695114887	4.8368315309311081	-0.0000415924245820	-0.0000604025703646	0.0000629684279070
Al	3.3436136200466882	6.8309676218190658	2.5756430806817914	0.0000729959500219	-0.0001202882121447	0.0000662782062628
Al	6.2643934137409296	3.6298117943625630	3.1263142348617050	-0.0001266866290673	-0.0000296270274703	0.0000586074575068
Al	0.7406651382107456	7.0831137982092942	3.1647575018378076	-0.0001914236793257	-0.0001274688052012	-0.0000056690998339
Al	0.3784167155534015	7.2711777858005560	5.7216777852646095	0.0000976239244285	-0.0000797835127438	-0.0000391997328184
Al	4.2360066328263271	4.6841840892092330	1.4998018678645682	-0.0001735029394074	-0.0000196826847090	0.0001405825366800
Al	1.5888890665242241	4.7981227463314919	2.1071091043438837	0.0000417616299337	-0.0001756209127432	-0.0001673951624695
Al	4.8168522228576318	2.0098230689465781	1.7911111401222590	0.0001927146873773	0.0001041623287252	-0.0000249141129912
Al	3.5003365377441766	3.5120556657765789	3.7822694420979026	-0.0000475791794376	-0.0000715562492592	-0.0001575745606419
Al	-0.8394226334274134	8.4632808223578451	8.2074482404233198	0.0002832170416565	0.0002257408831784	-0.0000594243324276
Al	2.2432867367844365	2.3600938673019125	1.3497655283420105	-0.0000147666132570	0.0001266026573140	-0.0000984470306194
Al	4.9297724017419950	5.6627391381365273	4.4216813115288094	-0.0001230984865224	-0.0000135843389930	0.0001806886641299
Al	6.4432265314248598	6.1878581688021805	2.3564901023685696	0.0000303367181815	0.0002415084444112	0.0000434987393154
13
REF_energy=-705.2297674604817530 charge=2 Properties=species:S:1:pos:R:3:REF_forces:R:3
Al	4.6775230927618745	2.8654921706897980	2.9037876390190873	0.0000913118499183	0.0000338096289865	0.0000280173439225
Al	7.7661691853806856	-3.7184579825116972	-0.1352251734123945	0.0000415725614089	0.0000935014591886	-0.0001597559707647
Al	7.0000950524624468	-1.6658002947124464	3.6785076493820030	-0.0000168051599848	-0.0000423257781084	-0.0000232152707085
Al	8.7519814326241061	-1.6526950916892285	1.5367373504643715	-0.0000512583567587	-0.0000032158439929	0.0000792386920033
Al	5.5765802823438264	0.3155603805532317	2.5213196690705235	0.0000347845237066	0.0000239260765350	0.0000353987740928
Al	6.0870624018405914	-2.1057945530926143	1.2578811126473981	-0.0000100801643521	-0.0001294383711149	0.0000802477153847
Al	7.8677794302573156	-1.2123250669583143	-1.0606486945794740	0.0000276777771780	-0.0000646985949443	-0.0000169578021654
Al	5.1121690651507734	2.0900697699471888	5.3039827808496058	-0.0000320011295022	0.0000225370185091	-0.0001029042272306
Al	7.2416626318065056	2.3113963338193004	3.3061249629729152	-0.0000245897518551	0.0000302783722171	0.0000229471128301
Al	5.5881035881429586	-0.0321458916143246	-0.3694919746499636	-0.0000467122600022	-0.0000263596484447	0.0001215053390747
Al	8.8859598778920503	0.2943110933094495	3.3711021079982735	-0.0000450678211775	0.0000445145987056	-0.0000690341008049
Al	7.8167945912448351	0.8449572783570183	0.9761416329842921	0.0000460393518987	0.0000189097631386	0.0000418772297601
Al	7.0087349912070191	0.3377596318378285	5.3067574923580203	-0.0000148714204779	-0.0000014386806752	-0.0000373648353941
13
REF_energy=-715.0320002030225623 charge=1 Properties=species:S:1:pos:R:3:REF_forces:R:3
Al	2.1238513860997306	6.9054385788422836	3.6491251768058786	0.0000140629238189	0.0000206889351496	-0.0000181682900735
Al	4.0113506763019862	3.6300299967931209	5.9919666176978499	-0.0000453974889185	-0.0000582539410980	-0.0000238995031168
Al	4.5993214111892158	3.0724407956564055	3.4305558194463086	0.0000080577603551	0.0000190096473517	0.0000068743500153
Al	4.3036151702769176	5.6124110492137831	4.1546713729860842	-0.0000471806662677	-0.0000074191308874	0.0000089000296550
Al	1.9444712955095746	3.9472104770765228	4.1572975913785850	-0.0000297782934713	0.0000135868687765	0.0000051451657679
Al	3.1887732758782428	4.8355112384136847	1.8681995496878696	-0.0000191475928526	-0.0000174094717098	-0.0000084322372509
Al	-0.1295696817774293	5.8020868535392722	4.8335057327757616	0.0000199072403028	0.0001249394682819	0.0000303369051568
Al	-0.1846279091089160	1.5184919613226779	0.6683069446325781	0.0000580871170783	-0.0001060243908598	-0.0000365146639381
Al	2.2892311829844725	5.6450490651856597	6.1462911341472557	0.0000570308897702	-0.0000281442510871	0.0000275043770162
Al	0.4798766199433736	5.5065890633517371	2.1746675667781599	-0.0000089326786782	-0.0000419770976721	0.0000404354119313
Al	-0.0759950865134359	2.9390573474402655	2.9473635608139910	0.0000164831487555	0.0000146756393727	-0.0000139101191654
Al	2.4016311858141868	2.0165998356181976	2.3843500658672196	0.0000268979228641	0.0000286461424139	0.0000267733990770
Al	1.3908112891201871	3.7077319073487125	0.4740389069834545	-0.0000500902827567	0.0000376815819678	-0.0000450448250749
13
REF_energy=-705.3762400348490473 charge=2 Properties=species:S:1:pos:R:3:REF_forces:R:3
Al	-2.4323855529500817	2.1214854531679155	0.9007077132999851	-0.0000143446908245	-0.0000097137857670	-0.0000080971671003
Al	-4.2177866610491943	4.1022730040448305	3.8331384374805948	0.0002429586568043	-0.0003632848222606	0.0000485081179899
Al	-4.6158387940500090	1.5796197028886272	2.9073271656052615	0.0000059093612122	0.0000173962519443	0.0001623208843385
Al	-2.5421369628694803	4.7346942319957463	1.7540528757503895	-0.0001163979152261	0.0000205331421577	0.0001482498994033
Al	-1.1907101090515113	-0.3851911576089691	0.7048508797534325	0.0000031405326112	0.0000840698297380	-0.0000487818373014
Al	-5.0796842220920881	6.1110884827310343	2.4027807534412515	-0.0000396294373965	-0.0000632943249690	-0.0002137712116203
Al	-1.8749770216347537	2.9677281150769885	3.6419614215432521	-0.0002079423652335	0.0001006532871665	0.0001585014827639
Al	-2.4718741411643830	0.2359474534798414	3.0835898297289304	-0.0001339053738175	0.0000952824501762	0.0001300867367160
Al	-4.8092095285452476	3.3046907088766950	1.0297666463241837	-0.0000830744760767	0.0000785014792258	0.0001272550071257
Al	-4.3047591196229966	5.6759157526608783	-0.0076115489418521	0.0001221868468501	0.0001053797649763	-0.0002598751461913
Al	0.4115017485893091	1.5538573446598809	0.0683643541960137	0.0000819096750601	0.0001312842478257	-0.0001564140598002
Al	-0.1019170283111303	1.1965522262119543	2.7737271063177866	0.0000488542045600	-0.0000059699490312	-0.0001181836133054
Al	-0.0741463245642353	3.5542590346964267	1.5893432030029397	0.0000903349814769	-0.0001908375711826	0.0000302009069816
13
REF_energy=-704.8234597923130877 charge=2 Properties=species:S:1:pos:R:3:REF_forces:R:3
Al	-0.0435240045619866	5.7740059673615347	3.0310585961591912	0.0001478463382556	0.0000960270391821	0.0000249507815951
Al	0.9410911898847077	3.6869582531510230	1.9082752903267566	-0.0000167272150675	0.0000459122574246	-0.0001083009291587
Al	3.6437935690004326	2.4578510314513720	0.8922146434827222	0.0001222068799701	0.0000064186602099	-0.0000731346439884
Al	1.5582617313899889	6.2459863454515983	0.6584674420561948	0.0001076258716608	0.0000600112637902	0.0000873668742302
Al	-0.9977125781478322	6.8645140932920619	0.7232585599133015	0.0000957893673968	-0.0002317288582091	-0.0001064021323648
Al	-0.4525615365084848	5.0206139471421221	5.8771754035767216	-0.0000774745976470	0.0000560861368554	0.0000669237950096
Al	2.4070737401951670	7.0512542187398441	3.1170775487802849	0.0000016673898323	0.0001557134518836	0.0000435185995285
Al	2.1971832560636844	3.9996557829127855	-0.4771361252817721	-0.0002983971709558	-0.0001045967563899	0.0000786978573558
Al	1.4548715083501629	5.2842644182982434	7.6553280451932952	-0.0000152880893969	-0.0001157624529926	0.0000826388076125
Al	1.1720626994634535	7.0752313214953304	5.3660945558602284	0.0000687437329996	0.0000231434900611	-0.0000766550286160
Al	2.9464965766662230	2.3971637884633186	3.3493281015793488	0.0000582918199514	0.0001002460789366	-0.0000574470064551
Al	3.4155337642149126	4.9158687732122006	2.1298740417545079	-0.0000352555634347	0.0000143162645584	-0.0000185291162884
Al	1.8040214306009019	4.4304798853436731	4.4641238492475370	-0.0001590287635647	-0.0001057865753103	0.0000563721415399
13
REF_energy=-714.2233445701004939 charge=1 Properties=species:S:1:pos:R:3:REF_forces:R:3
Al	0.1517353472122370	3.2265527360159498	1.3702864593613544	0.0000219344565962	0.0001370502816049	-0.0000055353839235
Al	2.8275652018636306	4.0880236043370246	1.9813101021184585	0.0000359733201566	0.0000425447692742	-0.0000229656435936
Al	0.7554763842381106	5.5582167811710779	0.5971799564574843	0.0000665131398764	0.0001117143529360	-0.0000575798995403
Al	2.8776051058160319	4.0614834740897008	4.5996868241323696	0.0000461199217105	0.0001531970191351	-0.0000009883619713
Al	3.8009482877897911	6.4188100561664978	3.9452596791327053	-0.0000208444346806	0.0000146509239351	0.0001214459986987
Al	0.9998510842418052	3.8168768649945188	6.5852078010762085	-0.0000106210843216	-0.0000491040376750	0.0001301326695584
Al	1.8733051215478982	1.8636786675256507	2.9064630876580937	-0.0000744617222270	-0.0001036576319279	0.0000188894527922
Al	1.9206998470809502	1.4893451929490806	5.4307163381834167	0.0000229118310078	-0.0000767483065537	-0.0000922810285239
Al	0.1132446283723176	3.4693892858501845	4.1165709767824534	-0.0001268430672291	-0.0001370518393644	0.0000542447984451
Al	2.7419036685443556	6.9333446066599329	1.6200352094819781	-0.0000149351865681	-0.0001033628742512	0.0000663937140540
Al	1.0220613187013206	5.7277441106539788	3.2737498906771290	-0.0000018475862929	0.0000145603798895	-0.0001550290302880
Al	3.2630063396837445	2.7979402046289099	7.3956103934822401	0.0000831302839430	0.0001264787409453	-0.0000669349447064
Al	3.2822232203398864	5.2479015738598687	-0.4130120446940967	-0.0000270298719712	-0.0001302717779480	0.0000102076589987
13
REF_energy=-704.6347789435607183 charge=2 Properties=species:S:1:pos:R:3:REF_forces:R:3
Al	6.1460012724274495	8.6650728344631585	2.5467478422163636	-0.0001586709553149	-0.0000644935713440	-0.0000158955773345
Al	7.3274517438088314	11.2007349415781832	3.3627627276282466	0.0003781791418098	-0.0001733846845797	-0.0000311454512171
Al	5.9301240310034053	6.0609151509987047	2.7377210489893957	-0.0000443717364895	0.0000028049524539	-0.0000041913275720
Al	5.8109527090287392	7.2943594647922483	0.2764010581337834	-0.0000865722094234	-0.0000010437421457	0.0000473706239321
Al	3.1398028485063878	2.4059027825206298	2.6743091084705046	-0.0000080261666302	0.0000066796583395	-0.0001575915480658
Al	3.3732166021805443	6.2300858276979518	0.0933723074525644	-0.0001027381675822	0.0000364624399953	-0.0000599130190032
Al	6.5401752404945386	-0.6118158092859712	0.1120453581644254	0.0003366416282894	0.0002341645533285	0.0001068210629220
Al	5.6386859906899378	4.5770394400442598	0.2979176742036496	-0.0000803590887488	-0.0000417786161041	-0.0000353468141392
Al	3.7216853829298326	7.7045992720036880	2.2572935389258357	-0.0000194822582433	0.0000699027103611	0.0000180287329145
Al	5.2095626688577656	1.8982675893420082	0.7817237931004277	-0.0000534762467997	-0.0000559584020686	-0.0000498217705074
Al	3.1573041248972165	5.1096231415021274	2.5924626365139805	-0.0000646456344983	0.0000355779666404	0.0000281391811663
Al	5.5021741071178418	3.5352989124909753	2.8488664087567712	-0.0000329199972776	0.0000393337376700	0.0000982815036886
Al	3.1571302714935139	3.5683299349648383	0.3027853244230004	-0.0000635583090913	-0.0000882670025466	0.0000552644032158
13
REF_energy=-704.9041395232458171 charge=2 Properties=species:S:1:pos:R:3:REF_forces:R:3
Al	3.5679407242701253	4.1919490791903646	3.7862523905202865	-0.0001046829280307	-0.0000177770821671	0.0000335071169770
Al	5.9053577407982862	5.8345045133503959	7.4235440823892000	0.0000141236140894	0.0000200199865092	-0.0000086872971292
Al	4.8612539305202080	6.2890411710314655	5.0050744195151271	-0.0000583052275501	-0.0000642485370545	-0.0000323676772851
Al	-0.3785994144709976	5.3013904591494709	0.1775679871953661	0.0002267416478339	0.0001199355025672	-0.0001725186128143
Al	5.1097952139552962	3.6973270131328708	5.8517193763784494	0.0000000148820852	0.0000065489481598	0.0000269130583436
Al	3.3104471450047717	8.4470702994833093	4.2101066253916768	-0.0000141007435237	-0.0000558423588229	0.0000646259639181
Al	1.6144795655542206	5.2488826953794838	2.3524132944109581	-0.0000156070094354	-0.0000158755448013	0.0001279961500063
Al	6.3761192602994434	3.4401095324560917	8.3177057121078946	0.0000857792383499	-0.0000088222606297	-0.0000955636180844
Al	2.4439694983516724	3.9345075928536484	6.2606567438275373	0.0000154880504250	0.0000078606873784	0.0000726017996017
Al	1.9590343636887633	6.1667313404638611	4.8845711939162042	-0.0001045244077775	-0.0000317177157066	0.0000597433394216
Al	3.8486092527101299	3.7776457593028212	8.4217656296300110	0.0000495458201643	0.0000901521303931	-0.0000315102259670
Al	3.9023326837502212	6.6055584262648717	2.4311023076020359	-0.0001129042429993	-0.0000918414435602	-0.0000208492712763
Al	3.3019075542770393	6.2943298456371579	7.2889783493384392	0.0000184313063690	0.0000416076877346	-0.0000238907257120
13
REF_energy=-705.3569999281082801 charge=2 Properties=species:S:1:pos:R:3:REF_forces:R:3
Al	3.8210043269098803	-2.3978234406974690	3.8872585752534712	-0.0000107501521693	-0.0001126547730746	0.0000298691141624
Al	6.0353841755216449	-4.5173766217524092	0.9644878731625099	-0.0000841329703845	0.0001358573866653	-0.0000990907545740
Al	6.3071082547047777	1.7869213736608758	3.5201349522355025	0.0000114119450279	-0.0001353879181887	0.0000243716936820
Al	4.6253566387053873	0.5720831412736967	1.8889725953909093	-0.0000748626194930	0.0000142923116816	-0.0000584770968789
Al	6.4033979782898260	-0.4373574531545081	0.1537548468913288	-0.0000461854105250	-0.0000026260105499	-0.0000001862293348
Al	6.1077545515584530	-0.8315796856660745	3.7289211838313392	-0.0000066432322027	-0.0000122494528004	-0.0000146944559497
Al	7.4932371643704574	-2.3692757130603179	1.8040363073391010	0.0000489395770187	-0.0000433364231573	0.0000820226322603
Al	6.6049320463143291	2.0441971650734123	0.7229384874199800	-0.0000611893070894	0.0000903039423672	-0.0000470390096591
Al	8.8233411216861377	2.7731670099824073	2.2793027498628606	0.0001097628359316	-0.0000359855209661	0.0000581315028278
Al	4.7078042734971621	-2.0749567927466122	1.4090371532398283	-0.0000628277273192	0.0000103226036182	-0.0000239628570188
Al	8.1666612509346432	0.1772487035424883	2.1696139359733477	0.0000832932294283	0.0000635033266938	0.0001291929209989
Al	6.0444466501346330	-3.7526370255321231	3.6298775363698863	0.0001111360907891	0.0001451127383349	0.0000633797709522
Al	6.6911878722018576	4.2243577871264240	2.4238351472628636	-0.0000179522590124	-0.0001171522106239	-0.0001435172314682
13
REF_energy=-703.2873315656850082 charge=2 Properties=species:S:1:pos:R:3:REF_forces:R:3
Al	3.2027047336565500	8.4024105025412066	7.3900219288670410	-0.0001970926413255	-0.0003448450251348	0.0001184187723808
Al	5.1083038618042158	5.0666284326744622	-1.3329408103540987	0.0000269191423516	-0.0000950601681579	0.0000545863512030
Al	5.0867242460832358	6.8702926496747789	0.4716721810419504	0.0000699620227557	-0.0000765496108912	0.0000894998602285
Al	4.4766900203702580	2.4501729815489544	-0.5352651609775508	-0.0002161111395521	-0.0000333122186206	0.0000180034832814
Al	4.0450973179146263	6.1824267715229881	7.8313808770800604	0.0003573363189250	-0.0000958512260223	-0.0000876794384774
Al	4.4699699019052739	4.3476507882069990	1.3250046225733525	-0.0000773394509673	-0.0001015924066418	0.0000242485259691
Al	6.2764034966999862	8.3952072447796020	8.0450582466609291	-0.0001313651751900	0.0004890434036828	-0.0000661389068528
Al	2.9763971003911256	6.7152800420825320	-1.2697181088952469	0.0001013560996856	0.0001316447261798	-0.0000223108072338
Al	2.5968312321696811	4.0966207582387311	-1.4168612579606572	-0.0000130817496216	0.0000532713198094	-0.0001072364014458
Al	2.7128848663645098	8.1589421508642612	0.9132469053976709	0.0002002236649187	-0.0000324797368065	0.0000354860282649
Al	3.7255474775521997	6.5495791451404850	2.7553796929358678	-0.0000392985685117	0.0000192900001028	-0.0001946669061880
Al	2.0890172030662684	5.3767159226988399	0.8637297737156437	-0.0000560606434603	0.0001231044946834	0.0000108373560926
Al	3.8978922694557583	6.9254894825234112	5.3124182332478922	-0.0000254478800081	-0.0000366635521830	0.0001269520827776
13
REF_energy=-714.8777291416154185 charge=1 Properties=species:S:1:pos:R:3:REF_forces:R:3
Al	3.7443852854971174	2.7391584893666141	5.4544923668296983	0.0000104643019148	0.0000712132028660	-0.0000084895783875
Al	-0.4165957065954199	2.7036795838265952	4.5733623038197626	-0.0000742396496668	-0.0000069027809388	0.0000140465537657
Al	2.2635514249666731	6.7295302062989766	2.4539304667157151	0.0000721480747567	0.0000581616993156	0.0000588911856304